+ 0.1 0 1 tcp 40 ------- 0 0.0 3.0 0 0
- 0.1 0 1 tcp 40 ------- 0 0.0 3.0 0 0
r 0.120064 0 1 tcp 40 ------- 0 0.0 3.0 0 0
+ 0.120064 1 2 tcp 40 ------- 0 0.0 3.0 0 0
- 0.120064 1 2 tcp 40 ------- 0 0.0 3.0 0 0
r 0.220704 1 2 tcp 40 ------- 0 0.0 3.0 0 0
+ 0.220704 2 3 tcp 40 ------- 0 0.0 3.0 0 0
- 0.220704 2 3 tcp 40 ------- 0 0.0 3.0 0 0
r 0.240768 2 3 tcp 40 ------- 0 0.0 3.0 0 0
+ 0.240768 3 2 ack 40 ------- 0 3.0 0.0 0 1
- 0.240768 3 2 ack 40 ------- 0 3.0 0.0 0 1
r 0.260832 3 2 ack 40 ------- 0 3.0 0.0 0 1
+ 0.260832 2 1 ack 40 ------- 0 3.0 0.0 0 1
- 0.260832 2 1 ack 40 ------- 0 3.0 0.0 0 1
r 0.361472 2 1 ack 40 ------- 0 3.0 0.0 0 1
+ 0.361472 1 0 ack 40 ------- 0 3.0 0.0 0 1
- 0.361472 1 0 ack 40 ------- 0 3.0 0.0 0 1
r 0.381536 1 0 ack 40 ------- 0 3.0 0.0 0 1
+ 0.381536 0 1 tcp 1540 ------- 0 0.0 3.0 1 2
- 0.381536 0 1 tcp 1540 ------- 0 0.0 3.0 1 2
+ 0.381536 0 1 tcp 1540 ------- 0 0.0 3.0 2 3
- 0.384 0 1 tcp 1540 ------- 0 0.0 3.0 2 3
r 0.404 0 1 tcp 1540 ------- 0 0.0 3.0 1 2
+ 0.404 1 2 tcp 1540 ------- 0 0.0 3.0 1 2
- 0.404 1 2 tcp 1540 ------- 0 0.0 3.0 1 2
r 0.406464 0 1 tcp 1540 ------- 0 0.0 3.0 2 3
+ 0.406464 1 2 tcp 1540 ------- 0 0.0 3.0 2 3
- 0.42864 1 2 tcp 1540 ------- 0 0.0 3.0 2 3
r 0.52864 1 2 tcp 1540 ------- 0 0.0 3.0 1 2
+ 0.52864 2 3 tcp 1540 ------- 0 0.0 3.0 1 2
- 0.52864 2 3 tcp 1540 ------- 0 0.0 3.0 1 2
r 0.551104 2 3 tcp 1540 ------- 0 0.0 3.0 1 2
+ 0.551104 3 2 ack 40 ------- 0 3.0 0.0 1 4
- 0.551104 3 2 ack 40 ------- 0 3.0 0.0 1 4
r 0.55328 1 2 tcp 1540 ------- 0 0.0 3.0 2 3
+ 0.55328 2 3 tcp 1540 ------- 0 0.0 3.0 2 3
- 0.55328 2 3 tcp 1540 ------- 0 0.0 3.0 2 3
r 0.571168 3 2 ack 40 ------- 0 3.0 0.0 1 4
+ 0.571168 2 1 ack 40 ------- 0 3.0 0.0 1 4
- 0.571168 2 1 ack 40 ------- 0 3.0 0.0 1 4
r 0.575744 2 3 tcp 1540 ------- 0 0.0 3.0 2 3
+ 0.575744 3 2 ack 40 ------- 0 3.0 0.0 2 5
- 0.575744 3 2 ack 40 ------- 0 3.0 0.0 2 5
r 0.595808 3 2 ack 40 ------- 0 3.0 0.0 2 5
+ 0.595808 2 1 ack 40 ------- 0 3.0 0.0 2 5
- 0.595808 2 1 ack 40 ------- 0 3.0 0.0 2 5
r 0.671808 2 1 ack 40 ------- 0 3.0 0.0 1 4
+ 0.671808 1 0 ack 40 ------- 0 3.0 0.0 1 4
- 0.671808 1 0 ack 40 ------- 0 3.0 0.0 1 4
r 0.691872 1 0 ack 40 ------- 0 3.0 0.0 1 4
+ 0.691872 0 1 tcp 1540 ------- 0 0.0 3.0 3 6
- 0.691872 0 1 tcp 1540 ------- 0 0.0 3.0 3 6
+ 0.691872 0 1 tcp 1540 ------- 0 0.0 3.0 4 7
- 0.694336 0 1 tcp 1540 ------- 0 0.0 3.0 4 7
r 0.696448 2 1 ack 40 ------- 0 3.0 0.0 2 5
+ 0.696448 1 0 ack 40 ------- 0 3.0 0.0 2 5
- 0.696448 1 0 ack 40 ------- 0 3.0 0.0 2 5
r 0.714336 0 1 tcp 1540 ------- 0 0.0 3.0 3 6
+ 0.714336 1 2 tcp 1540 ------- 0 0.0 3.0 3 6
- 0.714336 1 2 tcp 1540 ------- 0 0.0 3.0 3 6
r 0.716512 1 0 ack 40 ------- 0 3.0 0.0 2 5
+ 0.716512 0 1 tcp 1540 ------- 0 0.0 3.0 5 8
- 0.716512 0 1 tcp 1540 ------- 0 0.0 3.0 5 8
+ 0.716512 0 1 tcp 1540 ------- 0 0.0 3.0 6 9
r 0.7168 0 1 tcp 1540 ------- 0 0.0 3.0 4 7
+ 0.7168 1 2 tcp 1540 ------- 0 0.0 3.0 4 7
- 0.718976 0 1 tcp 1540 ------- 0 0.0 3.0 6 9
- 0.738976 1 2 tcp 1540 ------- 0 0.0 3.0 4 7
r 0.738976 0 1 tcp 1540 ------- 0 0.0 3.0 5 8
+ 0.738976 1 2 tcp 1540 ------- 0 0.0 3.0 5 8
r 0.74144 0 1 tcp 1540 ------- 0 0.0 3.0 6 9
+ 0.74144 1 2 tcp 1540 ------- 0 0.0 3.0 6 9
- 0.763616 1 2 tcp 1540 ------- 0 0.0 3.0 5 8
- 0.788256 1 2 tcp 1540 ------- 0 0.0 3.0 6 9
r 0.838976 1 2 tcp 1540 ------- 0 0.0 3.0 3 6
+ 0.838976 2 3 tcp 1540 ------- 0 0.0 3.0 3 6
- 0.838976 2 3 tcp 1540 ------- 0 0.0 3.0 3 6
r 0.86144 2 3 tcp 1540 ------- 0 0.0 3.0 3 6
+ 0.86144 3 2 ack 40 ------- 0 3.0 0.0 3 10
- 0.86144 3 2 ack 40 ------- 0 3.0 0.0 3 10
r 0.863616 1 2 tcp 1540 ------- 0 0.0 3.0 4 7
+ 0.863616 2 3 tcp 1540 ------- 0 0.0 3.0 4 7
- 0.863616 2 3 tcp 1540 ------- 0 0.0 3.0 4 7
r 0.881504 3 2 ack 40 ------- 0 3.0 0.0 3 10
+ 0.881504 2 1 ack 40 ------- 0 3.0 0.0 3 10
- 0.881504 2 1 ack 40 ------- 0 3.0 0.0 3 10
r 0.88608 2 3 tcp 1540 ------- 0 0.0 3.0 4 7
+ 0.88608 3 2 ack 40 ------- 0 3.0 0.0 4 11
- 0.88608 3 2 ack 40 ------- 0 3.0 0.0 4 11
r 0.888256 1 2 tcp 1540 ------- 0 0.0 3.0 5 8
+ 0.888256 2 3 tcp 1540 ------- 0 0.0 3.0 5 8
- 0.888256 2 3 tcp 1540 ------- 0 0.0 3.0 5 8
r 0.906144 3 2 ack 40 ------- 0 3.0 0.0 4 11
+ 0.906144 2 1 ack 40 ------- 0 3.0 0.0 4 11
- 0.906144 2 1 ack 40 ------- 0 3.0 0.0 4 11
r 0.91072 2 3 tcp 1540 ------- 0 0.0 3.0 5 8
+ 0.91072 3 2 ack 40 ------- 0 3.0 0.0 5 12
- 0.91072 3 2 ack 40 ------- 0 3.0 0.0 5 12
r 0.912896 1 2 tcp 1540 ------- 0 0.0 3.0 6 9
+ 0.912896 2 3 tcp 1540 ------- 0 0.0 3.0 6 9
- 0.912896 2 3 tcp 1540 ------- 0 0.0 3.0 6 9
r 0.930784 3 2 ack 40 ------- 0 3.0 0.0 5 12
+ 0.930784 2 1 ack 40 ------- 0 3.0 0.0 5 12
- 0.930784 2 1 ack 40 ------- 0 3.0 0.0 5 12
r 0.93536 2 3 tcp 1540 ------- 0 0.0 3.0 6 9
+ 0.93536 3 2 ack 40 ------- 0 3.0 0.0 6 13
- 0.93536 3 2 ack 40 ------- 0 3.0 0.0 6 13
r 0.955424 3 2 ack 40 ------- 0 3.0 0.0 6 13
+ 0.955424 2 1 ack 40 ------- 0 3.0 0.0 6 13
- 0.955424 2 1 ack 40 ------- 0 3.0 0.0 6 13
r 0.982144 2 1 ack 40 ------- 0 3.0 0.0 3 10
+ 0.982144 1 0 ack 40 ------- 0 3.0 0.0 3 10
- 0.982144 1 0 ack 40 ------- 0 3.0 0.0 3 10
r 1.002208 1 0 ack 40 ------- 0 3.0 0.0 3 10
+ 1.002208 0 1 tcp 1540 ------- 0 0.0 3.0 7 14
- 1.002208 0 1 tcp 1540 ------- 0 0.0 3.0 7 14
+ 1.002208 0 1 tcp 1540 ------- 0 0.0 3.0 8 15
- 1.004672 0 1 tcp 1540 ------- 0 0.0 3.0 8 15
r 1.006784 2 1 ack 40 ------- 0 3.0 0.0 4 11
+ 1.006784 1 0 ack 40 ------- 0 3.0 0.0 4 11
- 1.006784 1 0 ack 40 ------- 0 3.0 0.0 4 11
r 1.024672 0 1 tcp 1540 ------- 0 0.0 3.0 7 14
+ 1.024672 1 2 tcp 1540 ------- 0 0.0 3.0 7 14
- 1.024672 1 2 tcp 1540 ------- 0 0.0 3.0 7 14
r 1.026848 1 0 ack 40 ------- 0 3.0 0.0 4 11
+ 1.026848 0 1 tcp 1540 ------- 0 0.0 3.0 9 16
- 1.026848 0 1 tcp 1540 ------- 0 0.0 3.0 9 16
+ 1.026848 0 1 tcp 1540 ------- 0 0.0 3.0 10 17
r 1.027136 0 1 tcp 1540 ------- 0 0.0 3.0 8 15
+ 1.027136 1 2 tcp 1540 ------- 0 0.0 3.0 8 15
- 1.029312 0 1 tcp 1540 ------- 0 0.0 3.0 10 17
r 1.031424 2 1 ack 40 ------- 0 3.0 0.0 5 12
+ 1.031424 1 0 ack 40 ------- 0 3.0 0.0 5 12
- 1.031424 1 0 ack 40 ------- 0 3.0 0.0 5 12
- 1.049312 1 2 tcp 1540 ------- 0 0.0 3.0 8 15
r 1.049312 0 1 tcp 1540 ------- 0 0.0 3.0 9 16
+ 1.049312 1 2 tcp 1540 ------- 0 0.0 3.0 9 16
r 1.051488 1 0 ack 40 ------- 0 3.0 0.0 5 12
+ 1.051488 0 1 tcp 1540 ------- 0 0.0 3.0 11 18
- 1.051488 0 1 tcp 1540 ------- 0 0.0 3.0 11 18
+ 1.051488 0 1 tcp 1540 ------- 0 0.0 3.0 12 19
r 1.051776 0 1 tcp 1540 ------- 0 0.0 3.0 10 17
+ 1.051776 1 2 tcp 1540 ------- 0 0.0 3.0 10 17
- 1.053952 0 1 tcp 1540 ------- 0 0.0 3.0 12 19
r 1.056064 2 1 ack 40 ------- 0 3.0 0.0 6 13
+ 1.056064 1 0 ack 40 ------- 0 3.0 0.0 6 13
- 1.056064 1 0 ack 40 ------- 0 3.0 0.0 6 13
- 1.073952 1 2 tcp 1540 ------- 0 0.0 3.0 9 16
r 1.073952 0 1 tcp 1540 ------- 0 0.0 3.0 11 18
+ 1.073952 1 2 tcp 1540 ------- 0 0.0 3.0 11 18
r 1.076128 1 0 ack 40 ------- 0 3.0 0.0 6 13
+ 1.076128 0 1 tcp 1540 ------- 0 0.0 3.0 13 20
- 1.076128 0 1 tcp 1540 ------- 0 0.0 3.0 13 20
+ 1.076128 0 1 tcp 1540 ------- 0 0.0 3.0 14 21
r 1.076416 0 1 tcp 1540 ------- 0 0.0 3.0 12 19
+ 1.076416 1 2 tcp 1540 ------- 0 0.0 3.0 12 19
- 1.078592 0 1 tcp 1540 ------- 0 0.0 3.0 14 21
- 1.098592 1 2 tcp 1540 ------- 0 0.0 3.0 10 17
r 1.098592 0 1 tcp 1540 ------- 0 0.0 3.0 13 20
+ 1.098592 1 2 tcp 1540 ------- 0 0.0 3.0 13 20
r 1.101056 0 1 tcp 1540 ------- 0 0.0 3.0 14 21
+ 1.101056 1 2 tcp 1540 ------- 0 0.0 3.0 14 21
- 1.123232 1 2 tcp 1540 ------- 0 0.0 3.0 11 18
- 1.147872 1 2 tcp 1540 ------- 0 0.0 3.0 12 19
r 1.149312 1 2 tcp 1540 ------- 0 0.0 3.0 7 14
+ 1.149312 2 3 tcp 1540 ------- 0 0.0 3.0 7 14
- 1.149312 2 3 tcp 1540 ------- 0 0.0 3.0 7 14
r 1.171776 2 3 tcp 1540 ------- 0 0.0 3.0 7 14
+ 1.171776 3 2 ack 40 ------- 0 3.0 0.0 7 22
- 1.171776 3 2 ack 40 ------- 0 3.0 0.0 7 22
- 1.172512 1 2 tcp 1540 ------- 0 0.0 3.0 13 20
r 1.173952 1 2 tcp 1540 ------- 0 0.0 3.0 8 15
+ 1.173952 2 3 tcp 1540 ------- 0 0.0 3.0 8 15
- 1.173952 2 3 tcp 1540 ------- 0 0.0 3.0 8 15
r 1.19184 3 2 ack 40 ------- 0 3.0 0.0 7 22
+ 1.19184 2 1 ack 40 ------- 0 3.0 0.0 7 22
- 1.19184 2 1 ack 40 ------- 0 3.0 0.0 7 22
r 1.196416 2 3 tcp 1540 ------- 0 0.0 3.0 8 15
+ 1.196416 3 2 ack 40 ------- 0 3.0 0.0 8 23
- 1.196416 3 2 ack 40 ------- 0 3.0 0.0 8 23
- 1.197152 1 2 tcp 1540 ------- 0 0.0 3.0 14 21
r 1.198592 1 2 tcp 1540 ------- 0 0.0 3.0 9 16
+ 1.198592 2 3 tcp 1540 ------- 0 0.0 3.0 9 16
- 1.198592 2 3 tcp 1540 ------- 0 0.0 3.0 9 16
r 1.21648 3 2 ack 40 ------- 0 3.0 0.0 8 23
+ 1.21648 2 1 ack 40 ------- 0 3.0 0.0 8 23
- 1.21648 2 1 ack 40 ------- 0 3.0 0.0 8 23
r 1.221056 2 3 tcp 1540 ------- 0 0.0 3.0 9 16
+ 1.221056 3 2 ack 40 ------- 0 3.0 0.0 9 24
- 1.221056 3 2 ack 40 ------- 0 3.0 0.0 9 24
r 1.223232 1 2 tcp 1540 ------- 0 0.0 3.0 10 17
+ 1.223232 2 3 tcp 1540 ------- 0 0.0 3.0 10 17
- 1.223232 2 3 tcp 1540 ------- 0 0.0 3.0 10 17
r 1.24112 3 2 ack 40 ------- 0 3.0 0.0 9 24
+ 1.24112 2 1 ack 40 ------- 0 3.0 0.0 9 24
- 1.24112 2 1 ack 40 ------- 0 3.0 0.0 9 24
r 1.245696 2 3 tcp 1540 ------- 0 0.0 3.0 10 17
+ 1.245696 3 2 ack 40 ------- 0 3.0 0.0 10 25
- 1.245696 3 2 ack 40 ------- 0 3.0 0.0 10 25
r 1.247872 1 2 tcp 1540 ------- 0 0.0 3.0 11 18
+ 1.247872 2 3 tcp 1540 ------- 0 0.0 3.0 11 18
- 1.247872 2 3 tcp 1540 ------- 0 0.0 3.0 11 18
r 1.26576 3 2 ack 40 ------- 0 3.0 0.0 10 25
+ 1.26576 2 1 ack 40 ------- 0 3.0 0.0 10 25
- 1.26576 2 1 ack 40 ------- 0 3.0 0.0 10 25
r 1.270336 2 3 tcp 1540 ------- 0 0.0 3.0 11 18
+ 1.270336 3 2 ack 40 ------- 0 3.0 0.0 11 26
- 1.270336 3 2 ack 40 ------- 0 3.0 0.0 11 26
r 1.272512 1 2 tcp 1540 ------- 0 0.0 3.0 12 19
+ 1.272512 2 3 tcp 1540 ------- 0 0.0 3.0 12 19
- 1.272512 2 3 tcp 1540 ------- 0 0.0 3.0 12 19
r 1.2904 3 2 ack 40 ------- 0 3.0 0.0 11 26
+ 1.2904 2 1 ack 40 ------- 0 3.0 0.0 11 26
- 1.2904 2 1 ack 40 ------- 0 3.0 0.0 11 26
r 1.29248 2 1 ack 40 ------- 0 3.0 0.0 7 22
+ 1.29248 1 0 ack 40 ------- 0 3.0 0.0 7 22
- 1.29248 1 0 ack 40 ------- 0 3.0 0.0 7 22
r 1.294976 2 3 tcp 1540 ------- 0 0.0 3.0 12 19
+ 1.294976 3 2 ack 40 ------- 0 3.0 0.0 12 27
- 1.294976 3 2 ack 40 ------- 0 3.0 0.0 12 27
r 1.297152 1 2 tcp 1540 ------- 0 0.0 3.0 13 20
+ 1.297152 2 3 tcp 1540 ------- 0 0.0 3.0 13 20
- 1.297152 2 3 tcp 1540 ------- 0 0.0 3.0 13 20
r 1.312544 1 0 ack 40 ------- 0 3.0 0.0 7 22
+ 1.312544 0 1 tcp 1540 ------- 0 0.0 3.0 15 28
- 1.312544 0 1 tcp 1540 ------- 0 0.0 3.0 15 28
+ 1.312544 0 1 tcp 1540 ------- 0 0.0 3.0 16 29
- 1.315008 0 1 tcp 1540 ------- 0 0.0 3.0 16 29
r 1.31504 3 2 ack 40 ------- 0 3.0 0.0 12 27
+ 1.31504 2 1 ack 40 ------- 0 3.0 0.0 12 27
- 1.31504 2 1 ack 40 ------- 0 3.0 0.0 12 27
r 1.31712 2 1 ack 40 ------- 0 3.0 0.0 8 23
+ 1.31712 1 0 ack 40 ------- 0 3.0 0.0 8 23
- 1.31712 1 0 ack 40 ------- 0 3.0 0.0 8 23
r 1.319616 2 3 tcp 1540 ------- 0 0.0 3.0 13 20
+ 1.319616 3 2 ack 40 ------- 0 3.0 0.0 13 30
- 1.319616 3 2 ack 40 ------- 0 3.0 0.0 13 30
r 1.321792 1 2 tcp 1540 ------- 0 0.0 3.0 14 21
+ 1.321792 2 3 tcp 1540 ------- 0 0.0 3.0 14 21
- 1.321792 2 3 tcp 1540 ------- 0 0.0 3.0 14 21
r 1.335008 0 1 tcp 1540 ------- 0 0.0 3.0 15 28
+ 1.335008 1 2 tcp 1540 ------- 0 0.0 3.0 15 28
- 1.335008 1 2 tcp 1540 ------- 0 0.0 3.0 15 28
r 1.337184 1 0 ack 40 ------- 0 3.0 0.0 8 23
+ 1.337184 0 1 tcp 1540 ------- 0 0.0 3.0 17 31
- 1.337184 0 1 tcp 1540 ------- 0 0.0 3.0 17 31
+ 1.337184 0 1 tcp 1540 ------- 0 0.0 3.0 18 32
r 1.337472 0 1 tcp 1540 ------- 0 0.0 3.0 16 29
+ 1.337472 1 2 tcp 1540 ------- 0 0.0 3.0 16 29
- 1.339648 0 1 tcp 1540 ------- 0 0.0 3.0 18 32
r 1.33968 3 2 ack 40 ------- 0 3.0 0.0 13 30
+ 1.33968 2 1 ack 40 ------- 0 3.0 0.0 13 30
- 1.33968 2 1 ack 40 ------- 0 3.0 0.0 13 30
r 1.34176 2 1 ack 40 ------- 0 3.0 0.0 9 24
+ 1.34176 1 0 ack 40 ------- 0 3.0 0.0 9 24
- 1.34176 1 0 ack 40 ------- 0 3.0 0.0 9 24
r 1.344256 2 3 tcp 1540 ------- 0 0.0 3.0 14 21
+ 1.344256 3 2 ack 40 ------- 0 3.0 0.0 14 33
- 1.344256 3 2 ack 40 ------- 0 3.0 0.0 14 33
- 1.359648 1 2 tcp 1540 ------- 0 0.0 3.0 16 29
r 1.359648 0 1 tcp 1540 ------- 0 0.0 3.0 17 31
+ 1.359648 1 2 tcp 1540 ------- 0 0.0 3.0 17 31
r 1.361824 1 0 ack 40 ------- 0 3.0 0.0 9 24
+ 1.361824 0 1 tcp 1540 ------- 0 0.0 3.0 19 34
- 1.361824 0 1 tcp 1540 ------- 0 0.0 3.0 19 34
+ 1.361824 0 1 tcp 1540 ------- 0 0.0 3.0 20 35
r 1.362112 0 1 tcp 1540 ------- 0 0.0 3.0 18 32
+ 1.362112 1 2 tcp 1540 ------- 0 0.0 3.0 18 32
- 1.364288 0 1 tcp 1540 ------- 0 0.0 3.0 20 35
r 1.36432 3 2 ack 40 ------- 0 3.0 0.0 14 33
+ 1.36432 2 1 ack 40 ------- 0 3.0 0.0 14 33
- 1.36432 2 1 ack 40 ------- 0 3.0 0.0 14 33
r 1.3664 2 1 ack 40 ------- 0 3.0 0.0 10 25
+ 1.3664 1 0 ack 40 ------- 0 3.0 0.0 10 25
- 1.3664 1 0 ack 40 ------- 0 3.0 0.0 10 25
- 1.384288 1 2 tcp 1540 ------- 0 0.0 3.0 17 31
r 1.384288 0 1 tcp 1540 ------- 0 0.0 3.0 19 34
+ 1.384288 1 2 tcp 1540 ------- 0 0.0 3.0 19 34
r 1.386464 1 0 ack 40 ------- 0 3.0 0.0 10 25
+ 1.386464 0 1 tcp 1540 ------- 0 0.0 3.0 21 36
- 1.386464 0 1 tcp 1540 ------- 0 0.0 3.0 21 36
+ 1.386464 0 1 tcp 1540 ------- 0 0.0 3.0 22 37
r 1.386752 0 1 tcp 1540 ------- 0 0.0 3.0 20 35
+ 1.386752 1 2 tcp 1540 ------- 0 0.0 3.0 20 35
- 1.388928 0 1 tcp 1540 ------- 0 0.0 3.0 22 37
r 1.39104 2 1 ack 40 ------- 0 3.0 0.0 11 26
+ 1.39104 1 0 ack 40 ------- 0 3.0 0.0 11 26
- 1.39104 1 0 ack 40 ------- 0 3.0 0.0 11 26
- 1.408928 1 2 tcp 1540 ------- 0 0.0 3.0 18 32
r 1.408928 0 1 tcp 1540 ------- 0 0.0 3.0 21 36
+ 1.408928 1 2 tcp 1540 ------- 0 0.0 3.0 21 36
r 1.411104 1 0 ack 40 ------- 0 3.0 0.0 11 26
+ 1.411104 0 1 tcp 1540 ------- 0 0.0 3.0 23 38
- 1.411104 0 1 tcp 1540 ------- 0 0.0 3.0 23 38
+ 1.411104 0 1 tcp 1540 ------- 0 0.0 3.0 24 39
r 1.411392 0 1 tcp 1540 ------- 0 0.0 3.0 22 37
+ 1.411392 1 2 tcp 1540 ------- 0 0.0 3.0 22 37
- 1.413568 0 1 tcp 1540 ------- 0 0.0 3.0 24 39
r 1.41568 2 1 ack 40 ------- 0 3.0 0.0 12 27
+ 1.41568 1 0 ack 40 ------- 0 3.0 0.0 12 27
- 1.41568 1 0 ack 40 ------- 0 3.0 0.0 12 27
- 1.433568 1 2 tcp 1540 ------- 0 0.0 3.0 19 34
r 1.433568 0 1 tcp 1540 ------- 0 0.0 3.0 23 38
+ 1.433568 1 2 tcp 1540 ------- 0 0.0 3.0 23 38
r 1.435744 1 0 ack 40 ------- 0 3.0 0.0 12 27
+ 1.435744 0 1 tcp 1540 ------- 0 0.0 3.0 25 40
- 1.435744 0 1 tcp 1540 ------- 0 0.0 3.0 25 40
+ 1.435744 0 1 tcp 1540 ------- 0 0.0 3.0 26 41
r 1.436032 0 1 tcp 1540 ------- 0 0.0 3.0 24 39
+ 1.436032 1 2 tcp 1540 ------- 0 0.0 3.0 24 39
d 1.436032 1 2 tcp 1540 ------- 0 0.0 3.0 24 39
- 1.438208 0 1 tcp 1540 ------- 0 0.0 3.0 26 41
r 1.44032 2 1 ack 40 ------- 0 3.0 0.0 13 30
+ 1.44032 1 0 ack 40 ------- 0 3.0 0.0 13 30
- 1.44032 1 0 ack 40 ------- 0 3.0 0.0 13 30
- 1.458208 1 2 tcp 1540 ------- 0 0.0 3.0 20 35
r 1.458208 0 1 tcp 1540 ------- 0 0.0 3.0 25 40
+ 1.458208 1 2 tcp 1540 ------- 0 0.0 3.0 25 40
r 1.459648 1 2 tcp 1540 ------- 0 0.0 3.0 15 28
+ 1.459648 2 3 tcp 1540 ------- 0 0.0 3.0 15 28
- 1.459648 2 3 tcp 1540 ------- 0 0.0 3.0 15 28
r 1.460384 1 0 ack 40 ------- 0 3.0 0.0 13 30
+ 1.460384 0 1 tcp 1540 ------- 0 0.0 3.0 27 42
- 1.460384 0 1 tcp 1540 ------- 0 0.0 3.0 27 42
+ 1.460384 0 1 tcp 1540 ------- 0 0.0 3.0 28 43
r 1.460672 0 1 tcp 1540 ------- 0 0.0 3.0 26 41
+ 1.460672 1 2 tcp 1540 ------- 0 0.0 3.0 26 41
d 1.460672 1 2 tcp 1540 ------- 0 0.0 3.0 26 41
- 1.462848 0 1 tcp 1540 ------- 0 0.0 3.0 28 43
r 1.46496 2 1 ack 40 ------- 0 3.0 0.0 14 33
+ 1.46496 1 0 ack 40 ------- 0 3.0 0.0 14 33
- 1.46496 1 0 ack 40 ------- 0 3.0 0.0 14 33
r 1.482112 2 3 tcp 1540 ------- 0 0.0 3.0 15 28
+ 1.482112 3 2 ack 40 ------- 0 3.0 0.0 15 44
- 1.482112 3 2 ack 40 ------- 0 3.0 0.0 15 44
- 1.482848 1 2 tcp 1540 ------- 0 0.0 3.0 21 36
r 1.482848 0 1 tcp 1540 ------- 0 0.0 3.0 27 42
+ 1.482848 1 2 tcp 1540 ------- 0 0.0 3.0 27 42
r 1.484288 1 2 tcp 1540 ------- 0 0.0 3.0 16 29
+ 1.484288 2 3 tcp 1540 ------- 0 0.0 3.0 16 29
- 1.484288 2 3 tcp 1540 ------- 0 0.0 3.0 16 29
r 1.485024 1 0 ack 40 ------- 0 3.0 0.0 14 33
+ 1.485024 0 1 tcp 1540 ------- 0 0.0 3.0 29 45
- 1.485024 0 1 tcp 1540 ------- 0 0.0 3.0 29 45
+ 1.485024 0 1 tcp 1540 ------- 0 0.0 3.0 30 46
r 1.485312 0 1 tcp 1540 ------- 0 0.0 3.0 28 43
+ 1.485312 1 2 tcp 1540 ------- 0 0.0 3.0 28 43
d 1.485312 1 2 tcp 1540 ------- 0 0.0 3.0 28 43
- 1.487488 0 1 tcp 1540 ------- 0 0.0 3.0 30 46
r 1.502176 3 2 ack 40 ------- 0 3.0 0.0 15 44
+ 1.502176 2 1 ack 40 ------- 0 3.0 0.0 15 44
- 1.502176 2 1 ack 40 ------- 0 3.0 0.0 15 44
r 1.506752 2 3 tcp 1540 ------- 0 0.0 3.0 16 29
+ 1.506752 3 2 ack 40 ------- 0 3.0 0.0 16 47
- 1.506752 3 2 ack 40 ------- 0 3.0 0.0 16 47
- 1.507488 1 2 tcp 1540 ------- 0 0.0 3.0 22 37
r 1.507488 0 1 tcp 1540 ------- 0 0.0 3.0 29 45
+ 1.507488 1 2 tcp 1540 ------- 0 0.0 3.0 29 45
r 1.508928 1 2 tcp 1540 ------- 0 0.0 3.0 17 31
+ 1.508928 2 3 tcp 1540 ------- 0 0.0 3.0 17 31
- 1.508928 2 3 tcp 1540 ------- 0 0.0 3.0 17 31
r 1.509952 0 1 tcp 1540 ------- 0 0.0 3.0 30 46
+ 1.509952 1 2 tcp 1540 ------- 0 0.0 3.0 30 46
d 1.509952 1 2 tcp 1540 ------- 0 0.0 3.0 30 46
r 1.526816 3 2 ack 40 ------- 0 3.0 0.0 16 47
+ 1.526816 2 1 ack 40 ------- 0 3.0 0.0 16 47
- 1.526816 2 1 ack 40 ------- 0 3.0 0.0 16 47
r 1.531392 2 3 tcp 1540 ------- 0 0.0 3.0 17 31
+ 1.531392 3 2 ack 40 ------- 0 3.0 0.0 17 48
- 1.531392 3 2 ack 40 ------- 0 3.0 0.0 17 48
- 1.532128 1 2 tcp 1540 ------- 0 0.0 3.0 23 38
r 1.533568 1 2 tcp 1540 ------- 0 0.0 3.0 18 32
+ 1.533568 2 3 tcp 1540 ------- 0 0.0 3.0 18 32
- 1.533568 2 3 tcp 1540 ------- 0 0.0 3.0 18 32
r 1.551456 3 2 ack 40 ------- 0 3.0 0.0 17 48
+ 1.551456 2 1 ack 40 ------- 0 3.0 0.0 17 48
- 1.551456 2 1 ack 40 ------- 0 3.0 0.0 17 48
r 1.556032 2 3 tcp 1540 ------- 0 0.0 3.0 18 32
+ 1.556032 3 2 ack 40 ------- 0 3.0 0.0 18 49
- 1.556032 3 2 ack 40 ------- 0 3.0 0.0 18 49
- 1.556768 1 2 tcp 1540 ------- 0 0.0 3.0 25 40
r 1.558208 1 2 tcp 1540 ------- 0 0.0 3.0 19 34
+ 1.558208 2 3 tcp 1540 ------- 0 0.0 3.0 19 34
- 1.558208 2 3 tcp 1540 ------- 0 0.0 3.0 19 34
r 1.576096 3 2 ack 40 ------- 0 3.0 0.0 18 49
+ 1.576096 2 1 ack 40 ------- 0 3.0 0.0 18 49
- 1.576096 2 1 ack 40 ------- 0 3.0 0.0 18 49
r 1.580672 2 3 tcp 1540 ------- 0 0.0 3.0 19 34
+ 1.580672 3 2 ack 40 ------- 0 3.0 0.0 19 50
- 1.580672 3 2 ack 40 ------- 0 3.0 0.0 19 50
- 1.581408 1 2 tcp 1540 ------- 0 0.0 3.0 27 42
r 1.582848 1 2 tcp 1540 ------- 0 0.0 3.0 20 35
+ 1.582848 2 3 tcp 1540 ------- 0 0.0 3.0 20 35
- 1.582848 2 3 tcp 1540 ------- 0 0.0 3.0 20 35
r 1.600736 3 2 ack 40 ------- 0 3.0 0.0 19 50
+ 1.600736 2 1 ack 40 ------- 0 3.0 0.0 19 50
- 1.600736 2 1 ack 40 ------- 0 3.0 0.0 19 50
r 1.602816 2 1 ack 40 ------- 0 3.0 0.0 15 44
+ 1.602816 1 0 ack 40 ------- 0 3.0 0.0 15 44
- 1.602816 1 0 ack 40 ------- 0 3.0 0.0 15 44
r 1.605312 2 3 tcp 1540 ------- 0 0.0 3.0 20 35
+ 1.605312 3 2 ack 40 ------- 0 3.0 0.0 20 51
- 1.605312 3 2 ack 40 ------- 0 3.0 0.0 20 51
- 1.606048 1 2 tcp 1540 ------- 0 0.0 3.0 29 45
r 1.607488 1 2 tcp 1540 ------- 0 0.0 3.0 21 36
+ 1.607488 2 3 tcp 1540 ------- 0 0.0 3.0 21 36
- 1.607488 2 3 tcp 1540 ------- 0 0.0 3.0 21 36
r 1.62288 1 0 ack 40 ------- 0 3.0 0.0 15 44
+ 1.62288 0 1 tcp 1540 ------- 0 0.0 3.0 31 52
- 1.62288 0 1 tcp 1540 ------- 0 0.0 3.0 31 52
+ 1.62288 0 1 tcp 1540 ------- 0 0.0 3.0 32 53
- 1.625344 0 1 tcp 1540 ------- 0 0.0 3.0 32 53
r 1.625376 3 2 ack 40 ------- 0 3.0 0.0 20 51
+ 1.625376 2 1 ack 40 ------- 0 3.0 0.0 20 51
- 1.625376 2 1 ack 40 ------- 0 3.0 0.0 20 51
r 1.627456 2 1 ack 40 ------- 0 3.0 0.0 16 47
+ 1.627456 1 0 ack 40 ------- 0 3.0 0.0 16 47
- 1.627456 1 0 ack 40 ------- 0 3.0 0.0 16 47
r 1.629952 2 3 tcp 1540 ------- 0 0.0 3.0 21 36
+ 1.629952 3 2 ack 40 ------- 0 3.0 0.0 21 54
- 1.629952 3 2 ack 40 ------- 0 3.0 0.0 21 54
r 1.632128 1 2 tcp 1540 ------- 0 0.0 3.0 22 37
+ 1.632128 2 3 tcp 1540 ------- 0 0.0 3.0 22 37
- 1.632128 2 3 tcp 1540 ------- 0 0.0 3.0 22 37
r 1.645344 0 1 tcp 1540 ------- 0 0.0 3.0 31 52
+ 1.645344 1 2 tcp 1540 ------- 0 0.0 3.0 31 52
- 1.645344 1 2 tcp 1540 ------- 0 0.0 3.0 31 52
r 1.64752 1 0 ack 40 ------- 0 3.0 0.0 16 47
+ 1.64752 0 1 tcp 1540 ------- 0 0.0 3.0 33 55
- 1.64752 0 1 tcp 1540 ------- 0 0.0 3.0 33 55
+ 1.64752 0 1 tcp 1540 ------- 0 0.0 3.0 34 56
r 1.647808 0 1 tcp 1540 ------- 0 0.0 3.0 32 53
+ 1.647808 1 2 tcp 1540 ------- 0 0.0 3.0 32 53
- 1.649984 0 1 tcp 1540 ------- 0 0.0 3.0 34 56
r 1.650016 3 2 ack 40 ------- 0 3.0 0.0 21 54
+ 1.650016 2 1 ack 40 ------- 0 3.0 0.0 21 54
- 1.650016 2 1 ack 40 ------- 0 3.0 0.0 21 54
r 1.652096 2 1 ack 40 ------- 0 3.0 0.0 17 48
+ 1.652096 1 0 ack 40 ------- 0 3.0 0.0 17 48
- 1.652096 1 0 ack 40 ------- 0 3.0 0.0 17 48
r 1.654592 2 3 tcp 1540 ------- 0 0.0 3.0 22 37
+ 1.654592 3 2 ack 40 ------- 0 3.0 0.0 22 57
- 1.654592 3 2 ack 40 ------- 0 3.0 0.0 22 57
r 1.656768 1 2 tcp 1540 ------- 0 0.0 3.0 23 38
+ 1.656768 2 3 tcp 1540 ------- 0 0.0 3.0 23 38
- 1.656768 2 3 tcp 1540 ------- 0 0.0 3.0 23 38
- 1.669984 1 2 tcp 1540 ------- 0 0.0 3.0 32 53
r 1.669984 0 1 tcp 1540 ------- 0 0.0 3.0 33 55
+ 1.669984 1 2 tcp 1540 ------- 0 0.0 3.0 33 55
r 1.67216 1 0 ack 40 ------- 0 3.0 0.0 17 48
+ 1.67216 0 1 tcp 1540 ------- 0 0.0 3.0 35 58
- 1.67216 0 1 tcp 1540 ------- 0 0.0 3.0 35 58
+ 1.67216 0 1 tcp 1540 ------- 0 0.0 3.0 36 59
r 1.672448 0 1 tcp 1540 ------- 0 0.0 3.0 34 56
+ 1.672448 1 2 tcp 1540 ------- 0 0.0 3.0 34 56
- 1.674624 0 1 tcp 1540 ------- 0 0.0 3.0 36 59
r 1.674656 3 2 ack 40 ------- 0 3.0 0.0 22 57
+ 1.674656 2 1 ack 40 ------- 0 3.0 0.0 22 57
- 1.674656 2 1 ack 40 ------- 0 3.0 0.0 22 57
r 1.676736 2 1 ack 40 ------- 0 3.0 0.0 18 49
+ 1.676736 1 0 ack 40 ------- 0 3.0 0.0 18 49
- 1.676736 1 0 ack 40 ------- 0 3.0 0.0 18 49
r 1.679232 2 3 tcp 1540 ------- 0 0.0 3.0 23 38
+ 1.679232 3 2 ack 40 ------- 0 3.0 0.0 23 60
- 1.679232 3 2 ack 40 ------- 0 3.0 0.0 23 60
r 1.681408 1 2 tcp 1540 ------- 0 0.0 3.0 25 40
+ 1.681408 2 3 tcp 1540 ------- 0 0.0 3.0 25 40
- 1.681408 2 3 tcp 1540 ------- 0 0.0 3.0 25 40
- 1.694624 1 2 tcp 1540 ------- 0 0.0 3.0 33 55
r 1.694624 0 1 tcp 1540 ------- 0 0.0 3.0 35 58
+ 1.694624 1 2 tcp 1540 ------- 0 0.0 3.0 35 58
r 1.6968 1 0 ack 40 ------- 0 3.0 0.0 18 49
+ 1.6968 0 1 tcp 1540 ------- 0 0.0 3.0 37 61
- 1.6968 0 1 tcp 1540 ------- 0 0.0 3.0 37 61
+ 1.6968 0 1 tcp 1540 ------- 0 0.0 3.0 38 62
r 1.697088 0 1 tcp 1540 ------- 0 0.0 3.0 36 59
+ 1.697088 1 2 tcp 1540 ------- 0 0.0 3.0 36 59
- 1.699264 0 1 tcp 1540 ------- 0 0.0 3.0 38 62
r 1.699296 3 2 ack 40 ------- 0 3.0 0.0 23 60
+ 1.699296 2 1 ack 40 ------- 0 3.0 0.0 23 60
- 1.699296 2 1 ack 40 ------- 0 3.0 0.0 23 60
r 1.701376 2 1 ack 40 ------- 0 3.0 0.0 19 50
+ 1.701376 1 0 ack 40 ------- 0 3.0 0.0 19 50
- 1.701376 1 0 ack 40 ------- 0 3.0 0.0 19 50
r 1.703872 2 3 tcp 1540 ------- 0 0.0 3.0 25 40
+ 1.703872 3 2 ack 40 ------- 0 3.0 0.0 23 63
- 1.703872 3 2 ack 40 ------- 0 3.0 0.0 23 63
r 1.706048 1 2 tcp 1540 ------- 0 0.0 3.0 27 42
+ 1.706048 2 3 tcp 1540 ------- 0 0.0 3.0 27 42
- 1.706048 2 3 tcp 1540 ------- 0 0.0 3.0 27 42
- 1.719264 1 2 tcp 1540 ------- 0 0.0 3.0 34 56
r 1.719264 0 1 tcp 1540 ------- 0 0.0 3.0 37 61
+ 1.719264 1 2 tcp 1540 ------- 0 0.0 3.0 37 61
r 1.72144 1 0 ack 40 ------- 0 3.0 0.0 19 50
+ 1.72144 0 1 tcp 1540 ------- 0 0.0 3.0 39 64
- 1.72144 0 1 tcp 1540 ------- 0 0.0 3.0 39 64
r 1.721728 0 1 tcp 1540 ------- 0 0.0 3.0 38 62
+ 1.721728 1 2 tcp 1540 ------- 0 0.0 3.0 38 62
r 1.723936 3 2 ack 40 ------- 0 3.0 0.0 23 63
+ 1.723936 2 1 ack 40 ------- 0 3.0 0.0 23 63
- 1.723936 2 1 ack 40 ------- 0 3.0 0.0 23 63
r 1.726016 2 1 ack 40 ------- 0 3.0 0.0 20 51
+ 1.726016 1 0 ack 40 ------- 0 3.0 0.0 20 51
- 1.726016 1 0 ack 40 ------- 0 3.0 0.0 20 51
r 1.728512 2 3 tcp 1540 ------- 0 0.0 3.0 27 42
+ 1.728512 3 2 ack 40 ------- 0 3.0 0.0 23 65
- 1.728512 3 2 ack 40 ------- 0 3.0 0.0 23 65
r 1.730688 1 2 tcp 1540 ------- 0 0.0 3.0 29 45
+ 1.730688 2 3 tcp 1540 ------- 0 0.0 3.0 29 45
- 1.730688 2 3 tcp 1540 ------- 0 0.0 3.0 29 45
- 1.743904 1 2 tcp 1540 ------- 0 0.0 3.0 35 58
r 1.743904 0 1 tcp 1540 ------- 0 0.0 3.0 39 64
+ 1.743904 1 2 tcp 1540 ------- 0 0.0 3.0 39 64
r 1.74608 1 0 ack 40 ------- 0 3.0 0.0 20 51
+ 1.74608 0 1 tcp 1540 ------- 0 0.0 3.0 40 66
- 1.74608 0 1 tcp 1540 ------- 0 0.0 3.0 40 66
r 1.748576 3 2 ack 40 ------- 0 3.0 0.0 23 65
+ 1.748576 2 1 ack 40 ------- 0 3.0 0.0 23 65
- 1.748576 2 1 ack 40 ------- 0 3.0 0.0 23 65
r 1.750656 2 1 ack 40 ------- 0 3.0 0.0 21 54
+ 1.750656 1 0 ack 40 ------- 0 3.0 0.0 21 54
- 1.750656 1 0 ack 40 ------- 0 3.0 0.0 21 54
r 1.753152 2 3 tcp 1540 ------- 0 0.0 3.0 29 45
+ 1.753152 3 2 ack 40 ------- 0 3.0 0.0 23 67
- 1.753152 3 2 ack 40 ------- 0 3.0 0.0 23 67
- 1.768544 1 2 tcp 1540 ------- 0 0.0 3.0 36 59
r 1.768544 0 1 tcp 1540 ------- 0 0.0 3.0 40 66
+ 1.768544 1 2 tcp 1540 ------- 0 0.0 3.0 40 66
r 1.769984 1 2 tcp 1540 ------- 0 0.0 3.0 31 52
+ 1.769984 2 3 tcp 1540 ------- 0 0.0 3.0 31 52
- 1.769984 2 3 tcp 1540 ------- 0 0.0 3.0 31 52
r 1.77072 1 0 ack 40 ------- 0 3.0 0.0 21 54
+ 1.77072 0 1 tcp 1540 ------- 0 0.0 3.0 41 68
- 1.77072 0 1 tcp 1540 ------- 0 0.0 3.0 41 68
r 1.773216 3 2 ack 40 ------- 0 3.0 0.0 23 67
+ 1.773216 2 1 ack 40 ------- 0 3.0 0.0 23 67
- 1.773216 2 1 ack 40 ------- 0 3.0 0.0 23 67
r 1.775296 2 1 ack 40 ------- 0 3.0 0.0 22 57
+ 1.775296 1 0 ack 40 ------- 0 3.0 0.0 22 57
- 1.775296 1 0 ack 40 ------- 0 3.0 0.0 22 57
r 1.792448 2 3 tcp 1540 ------- 0 0.0 3.0 31 52
+ 1.792448 3 2 ack 40 ------- 0 3.0 0.0 23 69
- 1.792448 3 2 ack 40 ------- 0 3.0 0.0 23 69
- 1.793184 1 2 tcp 1540 ------- 0 0.0 3.0 37 61
r 1.793184 0 1 tcp 1540 ------- 0 0.0 3.0 41 68
+ 1.793184 1 2 tcp 1540 ------- 0 0.0 3.0 41 68
r 1.794624 1 2 tcp 1540 ------- 0 0.0 3.0 32 53
+ 1.794624 2 3 tcp 1540 ------- 0 0.0 3.0 32 53
- 1.794624 2 3 tcp 1540 ------- 0 0.0 3.0 32 53
r 1.79536 1 0 ack 40 ------- 0 3.0 0.0 22 57
+ 1.79536 0 1 tcp 1540 ------- 0 0.0 3.0 42 70
- 1.79536 0 1 tcp 1540 ------- 0 0.0 3.0 42 70
r 1.799936 2 1 ack 40 ------- 0 3.0 0.0 23 60
+ 1.799936 1 0 ack 40 ------- 0 3.0 0.0 23 60
- 1.799936 1 0 ack 40 ------- 0 3.0 0.0 23 60
r 1.812512 3 2 ack 40 ------- 0 3.0 0.0 23 69
+ 1.812512 2 1 ack 40 ------- 0 3.0 0.0 23 69
- 1.812512 2 1 ack 40 ------- 0 3.0 0.0 23 69
r 1.817088 2 3 tcp 1540 ------- 0 0.0 3.0 32 53
+ 1.817088 3 2 ack 40 ------- 0 3.0 0.0 23 71
- 1.817088 3 2 ack 40 ------- 0 3.0 0.0 23 71
- 1.817824 1 2 tcp 1540 ------- 0 0.0 3.0 38 62
r 1.817824 0 1 tcp 1540 ------- 0 0.0 3.0 42 70
+ 1.817824 1 2 tcp 1540 ------- 0 0.0 3.0 42 70
r 1.819264 1 2 tcp 1540 ------- 0 0.0 3.0 33 55
+ 1.819264 2 3 tcp 1540 ------- 0 0.0 3.0 33 55
- 1.819264 2 3 tcp 1540 ------- 0 0.0 3.0 33 55
r 1.82 1 0 ack 40 ------- 0 3.0 0.0 23 60
+ 1.82 0 1 tcp 1540 ------- 0 0.0 3.0 43 72
- 1.82 0 1 tcp 1540 ------- 0 0.0 3.0 43 72
r 1.824576 2 1 ack 40 ------- 0 3.0 0.0 23 63
+ 1.824576 1 0 ack 40 ------- 0 3.0 0.0 23 63
- 1.824576 1 0 ack 40 ------- 0 3.0 0.0 23 63
r 1.837152 3 2 ack 40 ------- 0 3.0 0.0 23 71
+ 1.837152 2 1 ack 40 ------- 0 3.0 0.0 23 71
- 1.837152 2 1 ack 40 ------- 0 3.0 0.0 23 71
r 1.841728 2 3 tcp 1540 ------- 0 0.0 3.0 33 55
+ 1.841728 3 2 ack 40 ------- 0 3.0 0.0 23 73
- 1.841728 3 2 ack 40 ------- 0 3.0 0.0 23 73
- 1.842464 1 2 tcp 1540 ------- 0 0.0 3.0 39 64
r 1.842464 0 1 tcp 1540 ------- 0 0.0 3.0 43 72
+ 1.842464 1 2 tcp 1540 ------- 0 0.0 3.0 43 72
r 1.843904 1 2 tcp 1540 ------- 0 0.0 3.0 34 56
+ 1.843904 2 3 tcp 1540 ------- 0 0.0 3.0 34 56
- 1.843904 2 3 tcp 1540 ------- 0 0.0 3.0 34 56
r 1.84464 1 0 ack 40 ------- 0 3.0 0.0 23 63
r 1.849216 2 1 ack 40 ------- 0 3.0 0.0 23 65
+ 1.849216 1 0 ack 40 ------- 0 3.0 0.0 23 65
- 1.849216 1 0 ack 40 ------- 0 3.0 0.0 23 65
r 1.861792 3 2 ack 40 ------- 0 3.0 0.0 23 73
+ 1.861792 2 1 ack 40 ------- 0 3.0 0.0 23 73
- 1.861792 2 1 ack 40 ------- 0 3.0 0.0 23 73
r 1.866368 2 3 tcp 1540 ------- 0 0.0 3.0 34 56
+ 1.866368 3 2 ack 40 ------- 0 3.0 0.0 23 74
- 1.866368 3 2 ack 40 ------- 0 3.0 0.0 23 74
- 1.867104 1 2 tcp 1540 ------- 0 0.0 3.0 40 66
r 1.868544 1 2 tcp 1540 ------- 0 0.0 3.0 35 58
+ 1.868544 2 3 tcp 1540 ------- 0 0.0 3.0 35 58
- 1.868544 2 3 tcp 1540 ------- 0 0.0 3.0 35 58
r 1.86928 1 0 ack 40 ------- 0 3.0 0.0 23 65
r 1.873856 2 1 ack 40 ------- 0 3.0 0.0 23 67
+ 1.873856 1 0 ack 40 ------- 0 3.0 0.0 23 67
- 1.873856 1 0 ack 40 ------- 0 3.0 0.0 23 67
r 1.886432 3 2 ack 40 ------- 0 3.0 0.0 23 74
+ 1.886432 2 1 ack 40 ------- 0 3.0 0.0 23 74
- 1.886432 2 1 ack 40 ------- 0 3.0 0.0 23 74
r 1.891008 2 3 tcp 1540 ------- 0 0.0 3.0 35 58
+ 1.891008 3 2 ack 40 ------- 0 3.0 0.0 23 75
- 1.891008 3 2 ack 40 ------- 0 3.0 0.0 23 75
- 1.891744 1 2 tcp 1540 ------- 0 0.0 3.0 41 68
r 1.893184 1 2 tcp 1540 ------- 0 0.0 3.0 36 59
+ 1.893184 2 3 tcp 1540 ------- 0 0.0 3.0 36 59
- 1.893184 2 3 tcp 1540 ------- 0 0.0 3.0 36 59
r 1.89392 1 0 ack 40 ------- 0 3.0 0.0 23 67
+ 1.89392 0 1 tcp 1540 ---A--- 0 0.0 3.0 24 76
- 1.89392 0 1 tcp 1540 ---A--- 0 0.0 3.0 24 76
r 1.911072 3 2 ack 40 ------- 0 3.0 0.0 23 75
+ 1.911072 2 1 ack 40 ------- 0 3.0 0.0 23 75
- 1.911072 2 1 ack 40 ------- 0 3.0 0.0 23 75
r 1.913152 2 1 ack 40 ------- 0 3.0 0.0 23 69
+ 1.913152 1 0 ack 40 ------- 0 3.0 0.0 23 69
- 1.913152 1 0 ack 40 ------- 0 3.0 0.0 23 69
r 1.915648 2 3 tcp 1540 ------- 0 0.0 3.0 36 59
+ 1.915648 3 2 ack 40 ------- 0 3.0 0.0 23 77
- 1.915648 3 2 ack 40 ------- 0 3.0 0.0 23 77
- 1.916384 1 2 tcp 1540 ------- 0 0.0 3.0 42 70
r 1.916384 0 1 tcp 1540 ---A--- 0 0.0 3.0 24 76
+ 1.916384 1 2 tcp 1540 ---A--- 0 0.0 3.0 24 76
r 1.917824 1 2 tcp 1540 ------- 0 0.0 3.0 37 61
+ 1.917824 2 3 tcp 1540 ------- 0 0.0 3.0 37 61
- 1.917824 2 3 tcp 1540 ------- 0 0.0 3.0 37 61
r 1.933216 1 0 ack 40 ------- 0 3.0 0.0 23 69
r 1.935712 3 2 ack 40 ------- 0 3.0 0.0 23 77
+ 1.935712 2 1 ack 40 ------- 0 3.0 0.0 23 77
- 1.935712 2 1 ack 40 ------- 0 3.0 0.0 23 77
r 1.937792 2 1 ack 40 ------- 0 3.0 0.0 23 71
+ 1.937792 1 0 ack 40 ------- 0 3.0 0.0 23 71
- 1.937792 1 0 ack 40 ------- 0 3.0 0.0 23 71
r 1.940288 2 3 tcp 1540 ------- 0 0.0 3.0 37 61
+ 1.940288 3 2 ack 40 ------- 0 3.0 0.0 23 78
- 1.940288 3 2 ack 40 ------- 0 3.0 0.0 23 78
- 1.941024 1 2 tcp 1540 ------- 0 0.0 3.0 43 72
r 1.942464 1 2 tcp 1540 ------- 0 0.0 3.0 38 62
+ 1.942464 2 3 tcp 1540 ------- 0 0.0 3.0 38 62
- 1.942464 2 3 tcp 1540 ------- 0 0.0 3.0 38 62