+ 0.1 0 1 tcp 40 ------- 0 0.0 4.0 0 0
- 0.1 0 1 tcp 40 ------- 0 0.0 4.0 0 0
+ 0.1 2 1 cbr 1500 ------- 0 2.0 5.0 0 1
- 0.1 2 1 cbr 1500 ------- 0 2.0 5.0 0 1
+ 0.1 2 1 cbr 1500 ------- 0 2.0 5.0 1 2
+ 0.1 2 1 cbr 1500 ------- 0 2.0 5.0 2 3
+ 0.1 2 1 cbr 1500 ------- 0 2.0 5.0 3 4
+ 0.1 2 1 cbr 1500 ------- 0 2.0 5.0 4 5
+ 0.1 2 1 cbr 1500 ------- 0 2.0 5.0 5 6
+ 0.1 2 1 cbr 1500 ------- 0 2.0 5.0 6 7
+ 0.1 2 1 cbr 1500 ------- 0 2.0 5.0 7 8
+ 0.1 2 1 cbr 1500 ------- 0 2.0 5.0 8 9
+ 0.1 2 1 cbr 1500 ------- 0 2.0 5.0 9 10
r 0.11032 0 1 tcp 40 ------- 0 0.0 4.0 0 0
+ 0.11032 1 3 tcp 40 ------- 0 0.0 4.0 0 0
- 0.11032 1 3 tcp 40 ------- 0 0.0 4.0 0 0
- 0.112 2 1 cbr 1500 ------- 0 2.0 5.0 1 2
r 0.12192 1 3 tcp 40 ------- 0 0.0 4.0 0 0
+ 0.12192 3 4 tcp 40 ------- 0 0.0 4.0 0 0
- 0.12192 3 4 tcp 40 ------- 0 0.0 4.0 0 0
r 0.122 2 1 cbr 1500 ------- 0 2.0 5.0 0 1
+ 0.122 1 3 cbr 1500 ------- 0 2.0 5.0 0 1
- 0.122 1 3 cbr 1500 ------- 0 2.0 5.0 0 1
- 0.124 2 1 cbr 1500 ------- 0 2.0 5.0 2 3
r 0.13224 3 4 tcp 40 ------- 0 0.0 4.0 0 0
+ 0.13224 4 3 ack 40 ------- 0 4.0 0.0 0 11
- 0.13224 4 3 ack 40 ------- 0 4.0 0.0 0 11
r 0.134 2 1 cbr 1500 ------- 0 2.0 5.0 1 2
+ 0.134 1 3 cbr 1500 ------- 0 2.0 5.0 1 2
- 0.136 2 1 cbr 1500 ------- 0 2.0 5.0 3 4
r 0.14256 4 3 ack 40 ------- 0 4.0 0.0 0 11
+ 0.14256 3 1 ack 40 ------- 0 4.0 0.0 0 11
- 0.14256 3 1 ack 40 ------- 0 4.0 0.0 0 11
r 0.146 2 1 cbr 1500 ------- 0 2.0 5.0 2 3
+ 0.146 1 3 cbr 1500 ------- 0 2.0 5.0 2 3
- 0.148 2 1 cbr 1500 ------- 0 2.0 5.0 4 5
r 0.15416 3 1 ack 40 ------- 0 4.0 0.0 0 11
+ 0.15416 1 0 ack 40 ------- 0 4.0 0.0 0 11
- 0.15416 1 0 ack 40 ------- 0 4.0 0.0 0 11
r 0.158 2 1 cbr 1500 ------- 0 2.0 5.0 3 4
+ 0.158 1 3 cbr 1500 ------- 0 2.0 5.0 3 4
- 0.16 2 1 cbr 1500 ------- 0 2.0 5.0 5 6
r 0.16448 1 0 ack 40 ------- 0 4.0 0.0 0 11
+ 0.16448 0 1 tcp 1540 ------- 0 0.0 4.0 1 12
- 0.16448 0 1 tcp 1540 ------- 0 0.0 4.0 1 12
+ 0.16448 0 1 tcp 1540 ------- 0 0.0 4.0 2 13
r 0.17 2 1 cbr 1500 ------- 0 2.0 5.0 4 5
+ 0.17 1 3 cbr 1500 ------- 0 2.0 5.0 4 5
- 0.172 2 1 cbr 1500 ------- 0 2.0 5.0 6 7
- 0.1768 0 1 tcp 1540 ------- 0 0.0 4.0 2 13
- 0.182 1 3 cbr 1500 ------- 0 2.0 5.0 1 2
r 0.182 2 1 cbr 1500 ------- 0 2.0 5.0 5 6
+ 0.182 1 3 cbr 1500 ------- 0 2.0 5.0 5 6
- 0.184 2 1 cbr 1500 ------- 0 2.0 5.0 7 8
r 0.1868 0 1 tcp 1540 ------- 0 0.0 4.0 1 12
+ 0.1868 1 3 tcp 1540 ------- 0 0.0 4.0 1 12
r 0.192 1 3 cbr 1500 ------- 0 2.0 5.0 0 1
+ 0.192 3 5 cbr 1500 ------- 0 2.0 5.0 0 1
- 0.192 3 5 cbr 1500 ------- 0 2.0 5.0 0 1
r 0.194 2 1 cbr 1500 ------- 0 2.0 5.0 6 7
+ 0.194 1 3 cbr 1500 ------- 0 2.0 5.0 6 7
- 0.196 2 1 cbr 1500 ------- 0 2.0 5.0 8 9
r 0.19912 0 1 tcp 1540 ------- 0 0.0 4.0 2 13
+ 0.19912 1 3 tcp 1540 ------- 0 0.0 4.0 2 13
r 0.206 2 1 cbr 1500 ------- 0 2.0 5.0 7 8
+ 0.206 1 3 cbr 1500 ------- 0 2.0 5.0 7 8
- 0.208 2 1 cbr 1500 ------- 0 2.0 5.0 9 10
r 0.214 3 5 cbr 1500 ------- 0 2.0 5.0 0 1
r 0.218 2 1 cbr 1500 ------- 0 2.0 5.0 8 9
+ 0.218 1 3 cbr 1500 ------- 0 2.0 5.0 8 9
r 0.23 2 1 cbr 1500 ------- 0 2.0 5.0 9 10
+ 0.23 1 3 cbr 1500 ------- 0 2.0 5.0 9 10
d 0.23 1 3 cbr 1500 ------- 0 2.0 5.0 9 10
- 0.242 1 3 cbr 1500 ------- 0 2.0 5.0 2 3
r 0.252 1 3 cbr 1500 ------- 0 2.0 5.0 1 2
+ 0.252 3 5 cbr 1500 ------- 0 2.0 5.0 1 2
- 0.252 3 5 cbr 1500 ------- 0 2.0 5.0 1 2
r 0.274 3 5 cbr 1500 ------- 0 2.0 5.0 1 2
+ 0.3 2 1 cbr 1500 ------- 0 2.0 5.0 10 14
- 0.3 2 1 cbr 1500 ------- 0 2.0 5.0 10 14
+ 0.3 2 1 cbr 1500 ------- 0 2.0 5.0 11 15
+ 0.3 2 1 cbr 1500 ------- 0 2.0 5.0 12 16
+ 0.3 2 1 cbr 1500 ------- 0 2.0 5.0 13 17
+ 0.3 2 1 cbr 1500 ------- 0 2.0 5.0 14 18
+ 0.3 2 1 cbr 1500 ------- 0 2.0 5.0 15 19
+ 0.3 2 1 cbr 1500 ------- 0 2.0 5.0 16 20
+ 0.3 2 1 cbr 1500 ------- 0 2.0 5.0 17 21
+ 0.3 2 1 cbr 1500 ------- 0 2.0 5.0 18 22
+ 0.3 2 1 cbr 1500 ------- 0 2.0 5.0 19 23
- 0.302 1 3 cbr 1500 ------- 0 2.0 5.0 3 4
r 0.312 1 3 cbr 1500 ------- 0 2.0 5.0 2 3
+ 0.312 3 5 cbr 1500 ------- 0 2.0 5.0 2 3
- 0.312 3 5 cbr 1500 ------- 0 2.0 5.0 2 3
- 0.312 2 1 cbr 1500 ------- 0 2.0 5.0 11 15
r 0.322 2 1 cbr 1500 ------- 0 2.0 5.0 10 14
+ 0.322 1 3 cbr 1500 ------- 0 2.0 5.0 10 14
- 0.324 2 1 cbr 1500 ------- 0 2.0 5.0 12 16
r 0.334 3 5 cbr 1500 ------- 0 2.0 5.0 2 3
r 0.334 2 1 cbr 1500 ------- 0 2.0 5.0 11 15
+ 0.334 1 3 cbr 1500 ------- 0 2.0 5.0 11 15
- 0.336 2 1 cbr 1500 ------- 0 2.0 5.0 13 17
r 0.346 2 1 cbr 1500 ------- 0 2.0 5.0 12 16
+ 0.346 1 3 cbr 1500 ------- 0 2.0 5.0 12 16
d 0.346 1 3 cbr 1500 ------- 0 2.0 5.0 12 16
- 0.348 2 1 cbr 1500 ------- 0 2.0 5.0 14 18
r 0.358 2 1 cbr 1500 ------- 0 2.0 5.0 13 17
+ 0.358 1 3 cbr 1500 ------- 0 2.0 5.0 13 17
d 0.358 1 3 cbr 1500 ------- 0 2.0 5.0 13 17
- 0.36 2 1 cbr 1500 ------- 0 2.0 5.0 15 19
- 0.362 1 3 cbr 1500 ------- 0 2.0 5.0 4 5
r 0.37 2 1 cbr 1500 ------- 0 2.0 5.0 14 18
+ 0.37 1 3 cbr 1500 ------- 0 2.0 5.0 14 18
r 0.372 1 3 cbr 1500 ------- 0 2.0 5.0 3 4
+ 0.372 3 5 cbr 1500 ------- 0 2.0 5.0 3 4
- 0.372 3 5 cbr 1500 ------- 0 2.0 5.0 3 4
- 0.372 2 1 cbr 1500 ------- 0 2.0 5.0 16 20
+ 0.37448 0 1 tcp 1540 ---A--- 0 0.0 4.0 1 24
- 0.37448 0 1 tcp 1540 ---A--- 0 0.0 4.0 1 24
r 0.382 2 1 cbr 1500 ------- 0 2.0 5.0 15 19
+ 0.382 1 3 cbr 1500 ------- 0 2.0 5.0 15 19
d 0.382 1 3 cbr 1500 ------- 0 2.0 5.0 15 19
- 0.384 2 1 cbr 1500 ------- 0 2.0 5.0 17 21
r 0.394 3 5 cbr 1500 ------- 0 2.0 5.0 3 4
r 0.394 2 1 cbr 1500 ------- 0 2.0 5.0 16 20
+ 0.394 1 3 cbr 1500 ------- 0 2.0 5.0 16 20
d 0.394 1 3 cbr 1500 ------- 0 2.0 5.0 16 20
- 0.396 2 1 cbr 1500 ------- 0 2.0 5.0 18 22
r 0.3968 0 1 tcp 1540 ---A--- 0 0.0 4.0 1 24
+ 0.3968 1 3 tcp 1540 ---A--- 0 0.0 4.0 1 24
d 0.3968 1 3 tcp 1540 ---A--- 0 0.0 4.0 1 24
r 0.406 2 1 cbr 1500 ------- 0 2.0 5.0 17 21
+ 0.406 1 3 cbr 1500 ------- 0 2.0 5.0 17 21
d 0.406 1 3 cbr 1500 ------- 0 2.0 5.0 17 21
- 0.408 2 1 cbr 1500 ------- 0 2.0 5.0 19 23
r 0.418 2 1 cbr 1500 ------- 0 2.0 5.0 18 22
+ 0.418 1 3 cbr 1500 ------- 0 2.0 5.0 18 22
d 0.418 1 3 cbr 1500 ------- 0 2.0 5.0 18 22
- 0.422 1 3 cbr 1500 ------- 0 2.0 5.0 5 6
r 0.43 2 1 cbr 1500 ------- 0 2.0 5.0 19 23
+ 0.43 1 3 cbr 1500 ------- 0 2.0 5.0 19 23
r 0.432 1 3 cbr 1500 ------- 0 2.0 5.0 4 5
+ 0.432 3 5 cbr 1500 ------- 0 2.0 5.0 4 5
- 0.432 3 5 cbr 1500 ------- 0 2.0 5.0 4 5
r 0.454 3 5 cbr 1500 ------- 0 2.0 5.0 4 5
- 0.482 1 3 tcp 1540 ------- 0 0.0 4.0 1 12
r 0.492 1 3 cbr 1500 ------- 0 2.0 5.0 5 6
+ 0.492 3 5 cbr 1500 ------- 0 2.0 5.0 5 6
- 0.492 3 5 cbr 1500 ------- 0 2.0 5.0 5 6
+ 0.5 2 1 cbr 1500 ------- 0 2.0 5.0 20 25
- 0.5 2 1 cbr 1500 ------- 0 2.0 5.0 20 25
+ 0.5 2 1 cbr 1500 ------- 0 2.0 5.0 21 26
+ 0.5 2 1 cbr 1500 ------- 0 2.0 5.0 22 27
+ 0.5 2 1 cbr 1500 ------- 0 2.0 5.0 23 28
+ 0.5 2 1 cbr 1500 ------- 0 2.0 5.0 24 29
+ 0.5 2 1 cbr 1500 ------- 0 2.0 5.0 25 30
+ 0.5 2 1 cbr 1500 ------- 0 2.0 5.0 26 31
+ 0.5 2 1 cbr 1500 ------- 0 2.0 5.0 27 32
+ 0.5 2 1 cbr 1500 ------- 0 2.0 5.0 28 33
+ 0.5 2 1 cbr 1500 ------- 0 2.0 5.0 29 34
- 0.512 2 1 cbr 1500 ------- 0 2.0 5.0 21 26
r 0.514 3 5 cbr 1500 ------- 0 2.0 5.0 5 6
r 0.522 2 1 cbr 1500 ------- 0 2.0 5.0 20 25
+ 0.522 1 3 cbr 1500 ------- 0 2.0 5.0 20 25
- 0.524 2 1 cbr 1500 ------- 0 2.0 5.0 22 27
r 0.534 2 1 cbr 1500 ------- 0 2.0 5.0 21 26
+ 0.534 1 3 cbr 1500 ------- 0 2.0 5.0 21 26
d 0.534 1 3 cbr 1500 ------- 0 2.0 5.0 21 26
- 0.536 2 1 cbr 1500 ------- 0 2.0 5.0 23 28
- 0.5436 1 3 cbr 1500 ------- 0 2.0 5.0 6 7
r 0.546 2 1 cbr 1500 ------- 0 2.0 5.0 22 27
+ 0.546 1 3 cbr 1500 ------- 0 2.0 5.0 22 27
- 0.548 2 1 cbr 1500 ------- 0 2.0 5.0 24 29
r 0.5536 1 3 tcp 1540 ------- 0 0.0 4.0 1 12
+ 0.5536 3 4 tcp 1540 ------- 0 0.0 4.0 1 12
- 0.5536 3 4 tcp 1540 ------- 0 0.0 4.0 1 12
r 0.558 2 1 cbr 1500 ------- 0 2.0 5.0 23 28
+ 0.558 1 3 cbr 1500 ------- 0 2.0 5.0 23 28
d 0.558 1 3 cbr 1500 ------- 0 2.0 5.0 23 28
- 0.56 2 1 cbr 1500 ------- 0 2.0 5.0 25 30
r 0.57 2 1 cbr 1500 ------- 0 2.0 5.0 24 29
+ 0.57 1 3 cbr 1500 ------- 0 2.0 5.0 24 29
d 0.57 1 3 cbr 1500 ------- 0 2.0 5.0 24 29
- 0.572 2 1 cbr 1500 ------- 0 2.0 5.0 26 31
r 0.57592 3 4 tcp 1540 ------- 0 0.0 4.0 1 12
+ 0.57592 4 3 ack 40 ------- 0 4.0 0.0 1 35
- 0.57592 4 3 ack 40 ------- 0 4.0 0.0 1 35
r 0.582 2 1 cbr 1500 ------- 0 2.0 5.0 25 30
+ 0.582 1 3 cbr 1500 ------- 0 2.0 5.0 25 30
d 0.582 1 3 cbr 1500 ------- 0 2.0 5.0 25 30
- 0.584 2 1 cbr 1500 ------- 0 2.0 5.0 27 32
r 0.58624 4 3 ack 40 ------- 0 4.0 0.0 1 35
+ 0.58624 3 1 ack 40 ------- 0 4.0 0.0 1 35
- 0.58624 3 1 ack 40 ------- 0 4.0 0.0 1 35
r 0.594 2 1 cbr 1500 ------- 0 2.0 5.0 26 31
+ 0.594 1 3 cbr 1500 ------- 0 2.0 5.0 26 31
d 0.594 1 3 cbr 1500 ------- 0 2.0 5.0 26 31
- 0.596 2 1 cbr 1500 ------- 0 2.0 5.0 28 33
r 0.59784 3 1 ack 40 ------- 0 4.0 0.0 1 35
+ 0.59784 1 0 ack 40 ------- 0 4.0 0.0 1 35
- 0.59784 1 0 ack 40 ------- 0 4.0 0.0 1 35
- 0.6036 1 3 tcp 1540 ------- 0 0.0 4.0 2 13
r 0.606 2 1 cbr 1500 ------- 0 2.0 5.0 27 32
+ 0.606 1 3 cbr 1500 ------- 0 2.0 5.0 27 32
- 0.608 2 1 cbr 1500 ------- 0 2.0 5.0 29 34
r 0.60816 1 0 ack 40 ------- 0 4.0 0.0 1 35
+ 0.60816 0 1 tcp 1540 ------- 0 0.0 4.0 2 36
- 0.60816 0 1 tcp 1540 ------- 0 0.0 4.0 2 36
+ 0.60816 0 1 tcp 1540 ------- 0 0.0 4.0 3 37
r 0.6136 1 3 cbr 1500 ------- 0 2.0 5.0 6 7
+ 0.6136 3 5 cbr 1500 ------- 0 2.0 5.0 6 7
- 0.6136 3 5 cbr 1500 ------- 0 2.0 5.0 6 7
r 0.618 2 1 cbr 1500 ------- 0 2.0 5.0 28 33
+ 0.618 1 3 cbr 1500 ------- 0 2.0 5.0 28 33
d 0.618 1 3 cbr 1500 ------- 0 2.0 5.0 28 33
- 0.62048 0 1 tcp 1540 ------- 0 0.0 4.0 3 37
r 0.63 2 1 cbr 1500 ------- 0 2.0 5.0 29 34
+ 0.63 1 3 cbr 1500 ------- 0 2.0 5.0 29 34
d 0.63 1 3 cbr 1500 ------- 0 2.0 5.0 29 34
r 0.63048 0 1 tcp 1540 ------- 0 0.0 4.0 2 36
+ 0.63048 1 3 tcp 1540 ------- 0 0.0 4.0 2 36
d 0.63048 1 3 tcp 1540 ------- 0 0.0 4.0 2 36
r 0.6356 3 5 cbr 1500 ------- 0 2.0 5.0 6 7
r 0.6428 0 1 tcp 1540 ------- 0 0.0 4.0 3 37
+ 0.6428 1 3 tcp 1540 ------- 0 0.0 4.0 3 37
d 0.6428 1 3 tcp 1540 ------- 0 0.0 4.0 3 37
- 0.6652 1 3 cbr 1500 ------- 0 2.0 5.0 7 8
r 0.6752 1 3 tcp 1540 ------- 0 0.0 4.0 2 13
+ 0.6752 3 4 tcp 1540 ------- 0 0.0 4.0 2 13
- 0.6752 3 4 tcp 1540 ------- 0 0.0 4.0 2 13
r 0.69752 3 4 tcp 1540 ------- 0 0.0 4.0 2 13
+ 0.69752 4 3 ack 40 ------- 0 4.0 0.0 2 38
- 0.69752 4 3 ack 40 ------- 0 4.0 0.0 2 38
+ 0.7 2 1 cbr 1500 ------- 0 2.0 5.0 30 39
- 0.7 2 1 cbr 1500 ------- 0 2.0 5.0 30 39
+ 0.7 2 1 cbr 1500 ------- 0 2.0 5.0 31 40
+ 0.7 2 1 cbr 1500 ------- 0 2.0 5.0 32 41
+ 0.7 2 1 cbr 1500 ------- 0 2.0 5.0 33 42
+ 0.7 2 1 cbr 1500 ------- 0 2.0 5.0 34 43
+ 0.7 2 1 cbr 1500 ------- 0 2.0 5.0 35 44
+ 0.7 2 1 cbr 1500 ------- 0 2.0 5.0 36 45
+ 0.7 2 1 cbr 1500 ------- 0 2.0 5.0 37 46
+ 0.7 2 1 cbr 1500 ------- 0 2.0 5.0 38 47
+ 0.7 2 1 cbr 1500 ------- 0 2.0 5.0 39 48
r 0.70784 4 3 ack 40 ------- 0 4.0 0.0 2 38
+ 0.70784 3 1 ack 40 ------- 0 4.0 0.0 2 38
- 0.70784 3 1 ack 40 ------- 0 4.0 0.0 2 38
- 0.712 2 1 cbr 1500 ------- 0 2.0 5.0 31 40
r 0.71944 3 1 ack 40 ------- 0 4.0 0.0 2 38
+ 0.71944 1 0 ack 40 ------- 0 4.0 0.0 2 38
- 0.71944 1 0 ack 40 ------- 0 4.0 0.0 2 38
r 0.722 2 1 cbr 1500 ------- 0 2.0 5.0 30 39
+ 0.722 1 3 cbr 1500 ------- 0 2.0 5.0 30 39
- 0.724 2 1 cbr 1500 ------- 0 2.0 5.0 32 41
- 0.7252 1 3 cbr 1500 ------- 0 2.0 5.0 8 9
r 0.72976 1 0 ack 40 ------- 0 4.0 0.0 2 38
+ 0.72976 0 1 tcp 1540 ------- 0 0.0 4.0 4 49
- 0.72976 0 1 tcp 1540 ------- 0 0.0 4.0 4 49
r 0.734 2 1 cbr 1500 ------- 0 2.0 5.0 31 40
+ 0.734 1 3 cbr 1500 ------- 0 2.0 5.0 31 40
r 0.7352 1 3 cbr 1500 ------- 0 2.0 5.0 7 8
+ 0.7352 3 5 cbr 1500 ------- 0 2.0 5.0 7 8
- 0.7352 3 5 cbr 1500 ------- 0 2.0 5.0 7 8
- 0.736 2 1 cbr 1500 ------- 0 2.0 5.0 33 42
r 0.746 2 1 cbr 1500 ------- 0 2.0 5.0 32 41
+ 0.746 1 3 cbr 1500 ------- 0 2.0 5.0 32 41
d 0.746 1 3 cbr 1500 ------- 0 2.0 5.0 32 41
- 0.748 2 1 cbr 1500 ------- 0 2.0 5.0 34 43
r 0.75208 0 1 tcp 1540 ------- 0 0.0 4.0 4 49
+ 0.75208 1 3 tcp 1540 ------- 0 0.0 4.0 4 49
d 0.75208 1 3 tcp 1540 ------- 0 0.0 4.0 4 49
r 0.7572 3 5 cbr 1500 ------- 0 2.0 5.0 7 8
r 0.758 2 1 cbr 1500 ------- 0 2.0 5.0 33 42
+ 0.758 1 3 cbr 1500 ------- 0 2.0 5.0 33 42
d 0.758 1 3 cbr 1500 ------- 0 2.0 5.0 33 42
- 0.76 2 1 cbr 1500 ------- 0 2.0 5.0 35 44
r 0.77 2 1 cbr 1500 ------- 0 2.0 5.0 34 43
+ 0.77 1 3 cbr 1500 ------- 0 2.0 5.0 34 43
d 0.77 1 3 cbr 1500 ------- 0 2.0 5.0 34 43
- 0.772 2 1 cbr 1500 ------- 0 2.0 5.0 36 45
r 0.782 2 1 cbr 1500 ------- 0 2.0 5.0 35 44
+ 0.782 1 3 cbr 1500 ------- 0 2.0 5.0 35 44
d 0.782 1 3 cbr 1500 ------- 0 2.0 5.0 35 44
- 0.784 2 1 cbr 1500 ------- 0 2.0 5.0 37 46
- 0.7852 1 3 cbr 1500 ------- 0 2.0 5.0 10 14
r 0.794 2 1 cbr 1500 ------- 0 2.0 5.0 36 45
+ 0.794 1 3 cbr 1500 ------- 0 2.0 5.0 36 45
r 0.7952 1 3 cbr 1500 ------- 0 2.0 5.0 8 9
+ 0.7952 3 5 cbr 1500 ------- 0 2.0 5.0 8 9
- 0.7952 3 5 cbr 1500 ------- 0 2.0 5.0 8 9
- 0.796 2 1 cbr 1500 ------- 0 2.0 5.0 38 47
r 0.806 2 1 cbr 1500 ------- 0 2.0 5.0 37 46
+ 0.806 1 3 cbr 1500 ------- 0 2.0 5.0 37 46
d 0.806 1 3 cbr 1500 ------- 0 2.0 5.0 37 46
- 0.808 2 1 cbr 1500 ------- 0 2.0 5.0 39 48
r 0.8172 3 5 cbr 1500 ------- 0 2.0 5.0 8 9
r 0.818 2 1 cbr 1500 ------- 0 2.0 5.0 38 47
+ 0.818 1 3 cbr 1500 ------- 0 2.0 5.0 38 47
d 0.818 1 3 cbr 1500 ------- 0 2.0 5.0 38 47
r 0.83 2 1 cbr 1500 ------- 0 2.0 5.0 39 48
+ 0.83 1 3 cbr 1500 ------- 0 2.0 5.0 39 48
d 0.83 1 3 cbr 1500 ------- 0 2.0 5.0 39 48
- 0.8452 1 3 cbr 1500 ------- 0 2.0 5.0 11 15
r 0.8552 1 3 cbr 1500 ------- 0 2.0 5.0 10 14
+ 0.8552 3 5 cbr 1500 ------- 0 2.0 5.0 10 14
- 0.8552 3 5 cbr 1500 ------- 0 2.0 5.0 10 14
r 0.8772 3 5 cbr 1500 ------- 0 2.0 5.0 10 14
+ 0.9 2 1 cbr 1500 ------- 0 2.0 5.0 40 50
- 0.9 2 1 cbr 1500 ------- 0 2.0 5.0 40 50
+ 0.9 2 1 cbr 1500 ------- 0 2.0 5.0 41 51
+ 0.9 2 1 cbr 1500 ------- 0 2.0 5.0 42 52
+ 0.9 2 1 cbr 1500 ------- 0 2.0 5.0 43 53
+ 0.9 2 1 cbr 1500 ------- 0 2.0 5.0 44 54
+ 0.9 2 1 cbr 1500 ------- 0 2.0 5.0 45 55
+ 0.9 2 1 cbr 1500 ------- 0 2.0 5.0 46 56
+ 0.9 2 1 cbr 1500 ------- 0 2.0 5.0 47 57
+ 0.9 2 1 cbr 1500 ------- 0 2.0 5.0 48 58
+ 0.9 2 1 cbr 1500 ------- 0 2.0 5.0 49 59
- 0.9052 1 3 cbr 1500 ------- 0 2.0 5.0 14 18
- 0.912 2 1 cbr 1500 ------- 0 2.0 5.0 41 51
r 0.9152 1 3 cbr 1500 ------- 0 2.0 5.0 11 15
+ 0.9152 3 5 cbr 1500 ------- 0 2.0 5.0 11 15
- 0.9152 3 5 cbr 1500 ------- 0 2.0 5.0 11 15
r 0.922 2 1 cbr 1500 ------- 0 2.0 5.0 40 50
+ 0.922 1 3 cbr 1500 ------- 0 2.0 5.0 40 50
- 0.924 2 1 cbr 1500 ------- 0 2.0 5.0 42 52
r 0.934 2 1 cbr 1500 ------- 0 2.0 5.0 41 51
+ 0.934 1 3 cbr 1500 ------- 0 2.0 5.0 41 51
- 0.936 2 1 cbr 1500 ------- 0 2.0 5.0 43 53
r 0.9372 3 5 cbr 1500 ------- 0 2.0 5.0 11 15
r 0.946 2 1 cbr 1500 ------- 0 2.0 5.0 42 52
+ 0.946 1 3 cbr 1500 ------- 0 2.0 5.0 42 52
d 0.946 1 3 cbr 1500 ------- 0 2.0 5.0 42 52
- 0.948 2 1 cbr 1500 ------- 0 2.0 5.0 44 54
r 0.958 2 1 cbr 1500 ------- 0 2.0 5.0 43 53
+ 0.958 1 3 cbr 1500 ------- 0 2.0 5.0 43 53
d 0.958 1 3 cbr 1500 ------- 0 2.0 5.0 43 53
- 0.96 2 1 cbr 1500 ------- 0 2.0 5.0 45 55
- 0.9652 1 3 cbr 1500 ------- 0 2.0 5.0 19 23
r 0.97 2 1 cbr 1500 ------- 0 2.0 5.0 44 54
+ 0.97 1 3 cbr 1500 ------- 0 2.0 5.0 44 54
- 0.972 2 1 cbr 1500 ------- 0 2.0 5.0 46 56
r 0.9752 1 3 cbr 1500 ------- 0 2.0 5.0 14 18
+ 0.9752 3 5 cbr 1500 ------- 0 2.0 5.0 14 18
- 0.9752 3 5 cbr 1500 ------- 0 2.0 5.0 14 18
r 0.982 2 1 cbr 1500 ------- 0 2.0 5.0 45 55
+ 0.982 1 3 cbr 1500 ------- 0 2.0 5.0 45 55
d 0.982 1 3 cbr 1500 ------- 0 2.0 5.0 45 55
- 0.984 2 1 cbr 1500 ------- 0 2.0 5.0 47 57
r 0.994 2 1 cbr 1500 ------- 0 2.0 5.0 46 56
+ 0.994 1 3 cbr 1500 ------- 0 2.0 5.0 46 56
d 0.994 1 3 cbr 1500 ------- 0 2.0 5.0 46 56
- 0.996 2 1 cbr 1500 ------- 0 2.0 5.0 48 58
r 0.9972 3 5 cbr 1500 ------- 0 2.0 5.0 14 18
r 1.006 2 1 cbr 1500 ------- 0 2.0 5.0 47 57
+ 1.006 1 3 cbr 1500 ------- 0 2.0 5.0 47 57
d 1.006 1 3 cbr 1500 ------- 0 2.0 5.0 47 57
- 1.008 2 1 cbr 1500 ------- 0 2.0 5.0 49 59
r 1.018 2 1 cbr 1500 ------- 0 2.0 5.0 48 58
+ 1.018 1 3 cbr 1500 ------- 0 2.0 5.0 48 58
d 1.018 1 3 cbr 1500 ------- 0 2.0 5.0 48 58
- 1.0252 1 3 cbr 1500 ------- 0 2.0 5.0 20 25
r 1.03 2 1 cbr 1500 ------- 0 2.0 5.0 49 59
+ 1.03 1 3 cbr 1500 ------- 0 2.0 5.0 49 59
r 1.0352 1 3 cbr 1500 ------- 0 2.0 5.0 19 23
+ 1.0352 3 5 cbr 1500 ------- 0 2.0 5.0 19 23
- 1.0352 3 5 cbr 1500 ------- 0 2.0 5.0 19 23
r 1.0572 3 5 cbr 1500 ------- 0 2.0 5.0 19 23
- 1.0852 1 3 cbr 1500 ------- 0 2.0 5.0 22 27
r 1.0952 1 3 cbr 1500 ------- 0 2.0 5.0 20 25
+ 1.0952 3 5 cbr 1500 ------- 0 2.0 5.0 20 25
- 1.0952 3 5 cbr 1500 ------- 0 2.0 5.0 20 25
+ 1.1 2 1 cbr 1500 ------- 0 2.0 5.0 50 60
- 1.1 2 1 cbr 1500 ------- 0 2.0 5.0 50 60
+ 1.1 2 1 cbr 1500 ------- 0 2.0 5.0 51 61
+ 1.1 2 1 cbr 1500 ------- 0 2.0 5.0 52 62
+ 1.1 2 1 cbr 1500 ------- 0 2.0 5.0 53 63
+ 1.1 2 1 cbr 1500 ------- 0 2.0 5.0 54 64
+ 1.1 2 1 cbr 1500 ------- 0 2.0 5.0 55 65
+ 1.1 2 1 cbr 1500 ------- 0 2.0 5.0 56 66
+ 1.1 2 1 cbr 1500 ------- 0 2.0 5.0 57 67
+ 1.1 2 1 cbr 1500 ------- 0 2.0 5.0 58 68
+ 1.1 2 1 cbr 1500 ------- 0 2.0 5.0 59 69
- 1.112 2 1 cbr 1500 ------- 0 2.0 5.0 51 61
r 1.1172 3 5 cbr 1500 ------- 0 2.0 5.0 20 25
r 1.122 2 1 cbr 1500 ------- 0 2.0 5.0 50 60
+ 1.122 1 3 cbr 1500 ------- 0 2.0 5.0 50 60
- 1.124 2 1 cbr 1500 ------- 0 2.0 5.0 52 62
r 1.134 2 1 cbr 1500 ------- 0 2.0 5.0 51 61
+ 1.134 1 3 cbr 1500 ------- 0 2.0 5.0 51 61
d 1.134 1 3 cbr 1500 ------- 0 2.0 5.0 51 61
- 1.136 2 1 cbr 1500 ------- 0 2.0 5.0 53 63
- 1.1452 1 3 cbr 1500 ------- 0 2.0 5.0 27 32
r 1.146 2 1 cbr 1500 ------- 0 2.0 5.0 52 62
+ 1.146 1 3 cbr 1500 ------- 0 2.0 5.0 52 62
- 1.148 2 1 cbr 1500 ------- 0 2.0 5.0 54 64
+ 1.14976 0 1 tcp 1540 ---A--- 0 0.0 4.0 3 70
- 1.14976 0 1 tcp 1540 ---A--- 0 0.0 4.0 3 70
r 1.1552 1 3 cbr 1500 ------- 0 2.0 5.0 22 27
+ 1.1552 3 5 cbr 1500 ------- 0 2.0 5.0 22 27
- 1.1552 3 5 cbr 1500 ------- 0 2.0 5.0 22 27
r 1.158 2 1 cbr 1500 ------- 0 2.0 5.0 53 63
+ 1.158 1 3 cbr 1500 ------- 0 2.0 5.0 53 63
d 1.158 1 3 cbr 1500 ------- 0 2.0 5.0 53 63
- 1.16 2 1 cbr 1500 ------- 0 2.0 5.0 55 65
r 1.17 2 1 cbr 1500 ------- 0 2.0 5.0 54 64
+ 1.17 1 3 cbr 1500 ------- 0 2.0 5.0 54 64
d 1.17 1 3 cbr 1500 ------- 0 2.0 5.0 54 64
- 1.172 2 1 cbr 1500 ------- 0 2.0 5.0 56 66
r 1.17208 0 1 tcp 1540 ---A--- 0 0.0 4.0 3 70
+ 1.17208 1 3 tcp 1540 ---A--- 0 0.0 4.0 3 70
d 1.17208 1 3 tcp 1540 ---A--- 0 0.0 4.0 3 70
r 1.1772 3 5 cbr 1500 ------- 0 2.0 5.0 22 27
r 1.182 2 1 cbr 1500 ------- 0 2.0 5.0 55 65
+ 1.182 1 3 cbr 1500 ------- 0 2.0 5.0 55 65
d 1.182 1 3 cbr 1500 ------- 0 2.0 5.0 55 65
- 1.184 2 1 cbr 1500 ------- 0 2.0 5.0 57 67
r 1.194 2 1 cbr 1500 ------- 0 2.0 5.0 56 66
+ 1.194 1 3 cbr 1500 ------- 0 2.0 5.0 56 66
d 1.194 1 3 cbr 1500 ------- 0 2.0 5.0 56 66
- 1.196 2 1 cbr 1500 ------- 0 2.0 5.0 58 68
- 1.2052 1 3 cbr 1500 ------- 0 2.0 5.0 30 39
r 1.206 2 1 cbr 1500 ------- 0 2.0 5.0 57 67
+ 1.206 1 3 cbr 1500 ------- 0 2.0 5.0 57 67
- 1.208 2 1 cbr 1500 ------- 0 2.0 5.0 59 69
r 1.2152 1 3 cbr 1500 ------- 0 2.0 5.0 27 32
+ 1.2152 3 5 cbr 1500 ------- 0 2.0 5.0 27 32
- 1.2152 3 5 cbr 1500 ------- 0 2.0 5.0 27 32
r 1.218 2 1 cbr 1500 ------- 0 2.0 5.0 58 68
+ 1.218 1 3 cbr 1500 ------- 0 2.0 5.0 58 68
d 1.218 1 3 cbr 1500 ------- 0 2.0 5.0 58 68
r 1.23 2 1 cbr 1500 ------- 0 2.0 5.0 59 69
+ 1.23 1 3 cbr 1500 ------- 0 2.0 5.0 59 69
d 1.23 1 3 cbr 1500 ------- 0 2.0 5.0 59 69
r 1.2372 3 5 cbr 1500 ------- 0 2.0 5.0 27 32
- 1.2652 1 3 cbr 1500 ------- 0 2.0 5.0 31 40
r 1.2752 1 3 cbr 1500 ------- 0 2.0 5.0 30 39
+ 1.2752 3 5 cbr 1500 ------- 0 2.0 5.0 30 39
- 1.2752 3 5 cbr 1500 ------- 0 2.0 5.0 30 39
r 1.2972 3 5 cbr 1500 ------- 0 2.0 5.0 30 39
+ 1.3 2 1 cbr 1500 ------- 0 2.0 5.0 60 71
- 1.3 2 1 cbr 1500 ------- 0 2.0 5.0 60 71
+ 1.3 2 1 cbr 1500 ------- 0 2.0 5.0 61 72
+ 1.3 2 1 cbr 1500 ------- 0 2.0 5.0 62 73
+ 1.3 2 1 cbr 1500 ------- 0 2.0 5.0 63 74
+ 1.3 2 1 cbr 1500 ------- 0 2.0 5.0 64 75
+ 1.3 2 1 cbr 1500 ------- 0 2.0 5.0 65 76
+ 1.3 2 1 cbr 1500 ------- 0 2.0 5.0 66 77
+ 1.3 2 1 cbr 1500 ------- 0 2.0 5.0 67 78
+ 1.3 2 1 cbr 1500 ------- 0 2.0 5.0 68 79
+ 1.3 2 1 cbr 1500 ------- 0 2.0 5.0 69 80
- 1.312 2 1 cbr 1500 ------- 0 2.0 5.0 61 72
r 1.322 2 1 cbr 1500 ------- 0 2.0 5.0 60 71
+ 1.322 1 3 cbr 1500 ------- 0 2.0 5.0 60 71
- 1.324 2 1 cbr 1500 ------- 0 2.0 5.0 62 73
- 1.3252 1 3 cbr 1500 ------- 0 2.0 5.0 36 45
r 1.334 2 1 cbr 1500 ------- 0 2.0 5.0 61 72
+ 1.334 1 3 cbr 1500 ------- 0 2.0 5.0 61 72
r 1.3352 1 3 cbr 1500 ------- 0 2.0 5.0 31 40
+ 1.3352 3 5 cbr 1500 ------- 0 2.0 5.0 31 40
- 1.3352 3 5 cbr 1500 ------- 0 2.0 5.0 31 40
- 1.336 2 1 cbr 1500 ------- 0 2.0 5.0 63 74
r 1.346 2 1 cbr 1500 ------- 0 2.0 5.0 62 73
+ 1.346 1 3 cbr 1500 ------- 0 2.0 5.0 62 73
d 1.346 1 3 cbr 1500 ------- 0 2.0 5.0 62 73
- 1.348 2 1 cbr 1500 ------- 0 2.0 5.0 64 75
r 1.3572 3 5 cbr 1500 ------- 0 2.0 5.0 31 40
r 1.358 2 1 cbr 1500 ------- 0 2.0 5.0 63 74
+ 1.358 1 3 cbr 1500 ------- 0 2.0 5.0 63 74
d 1.358 1 3 cbr 1500 ------- 0 2.0 5.0 63 74
- 1.36 2 1 cbr 1500 ------- 0 2.0 5.0 65 76
r 1.37 2 1 cbr 1500 ------- 0 2.0 5.0 64 75
+ 1.37 1 3 cbr 1500 ------- 0 2.0 5.0 64 75
d 1.37 1 3 cbr 1500 ------- 0 2.0 5.0 64 75
- 1.372 2 1 cbr 1500 ------- 0 2.0 5.0 66 77
r 1.382 2 1 cbr 1500 ------- 0 2.0 5.0 65 76
+ 1.382 1 3 cbr 1500 ------- 0 2.0 5.0 65 76
d 1.382 1 3 cbr 1500 ------- 0 2.0 5.0 65 76
- 1.384 2 1 cbr 1500 ------- 0 2.0 5.0 67 78
- 1.3852 1 3 cbr 1500 ------- 0 2.0 5.0 40 50
r 1.394 2 1 cbr 1500 ------- 0 2.0 5.0 66 77
+ 1.394 1 3 cbr 1500 ------- 0 2.0 5.0 66 77
r 1.3952 1 3 cbr 1500 ------- 0 2.0 5.0 36 45
+ 1.3952 3 5 cbr 1500 ------- 0 2.0 5.0 36 45
- 1.3952 3 5 cbr 1500 ------- 0 2.0 5.0 36 45
- 1.396 2 1 cbr 1500 ------- 0 2.0 5.0 68 79
r 1.406 2 1 cbr 1500 ------- 0 2.0 5.0 67 78
+ 1.406 1 3 cbr 1500 ------- 0 2.0 5.0 67 78
d 1.406 1 3 cbr 1500 ------- 0 2.0 5.0 67 78
- 1.408 2 1 cbr 1500 ------- 0 2.0 5.0 69 80
r 1.4172 3 5 cbr 1500 ------- 0 2.0 5.0 36 45
r 1.418 2 1 cbr 1500 ------- 0 2.0 5.0 68 79
+ 1.418 1 3 cbr 1500 ------- 0 2.0 5.0 68 79
d 1.418 1 3 cbr 1500 ------- 0 2.0 5.0 68 79
r 1.43 2 1 cbr 1500 ------- 0 2.0 5.0 69 80
+ 1.43 1 3 cbr 1500 ------- 0 2.0 5.0 69 80
d 1.43 1 3 cbr 1500 ------- 0 2.0 5.0 69 80
- 1.4452 1 3 cbr 1500 ------- 0 2.0 5.0 41 51
r 1.4552 1 3 cbr 1500 ------- 0 2.0 5.0 40 50
+ 1.4552 3 5 cbr 1500 ------- 0 2.0 5.0 40 50
- 1.4552 3 5 cbr 1500 ------- 0 2.0 5.0 40 50
r 1.4772 3 5 cbr 1500 ------- 0 2.0 5.0 40 50
+ 1.5 2 1 cbr 1500 ------- 0 2.0 5.0 70 81
- 1.5 2 1 cbr 1500 ------- 0 2.0 5.0 70 81
+ 1.5 2 1 cbr 1500 ------- 0 2.0 5.0 71 82
+ 1.5 2 1 cbr 1500 ------- 0 2.0 5.0 72 83
+ 1.5 2 1 cbr 1500 ------- 0 2.0 5.0 73 84
+ 1.5 2 1 cbr 1500 ------- 0 2.0 5.0 74 85
+ 1.5 2 1 cbr 1500 ------- 0 2.0 5.0 75 86
+ 1.5 2 1 cbr 1500 ------- 0 2.0 5.0 76 87
+ 1.5 2 1 cbr 1500 ------- 0 2.0 5.0 77 88
+ 1.5 2 1 cbr 1500 ------- 0 2.0 5.0 78 89
+ 1.5 2 1 cbr 1500 ------- 0 2.0 5.0 79 90
- 1.5052 1 3 cbr 1500 ------- 0 2.0 5.0 44 54
- 1.512 2 1 cbr 1500 ------- 0 2.0 5.0 71 82
r 1.5152 1 3 cbr 1500 ------- 0 2.0 5.0 41 51
+ 1.5152 3 5 cbr 1500 ------- 0 2.0 5.0 41 51
- 1.5152 3 5 cbr 1500 ------- 0 2.0 5.0 41 51
r 1.522 2 1 cbr 1500 ------- 0 2.0 5.0 70 81
+ 1.522 1 3 cbr 1500 ------- 0 2.0 5.0 70 81
- 1.524 2 1 cbr 1500 ------- 0 2.0 5.0 72 83
r 1.534 2 1 cbr 1500 ------- 0 2.0 5.0 71 82
+ 1.534 1 3 cbr 1500 ------- 0 2.0 5.0 71 82
- 1.536 2 1 cbr 1500 ------- 0 2.0 5.0 73 84
r 1.5372 3 5 cbr 1500 ------- 0 2.0 5.0 41 51
r 1.546 2 1 cbr 1500 ------- 0 2.0 5.0 72 83
+ 1.546 1 3 cbr 1500 ------- 0 2.0 5.0 72 83
d 1.546 1 3 cbr 1500 ------- 0 2.0 5.0 72 83
- 1.548 2 1 cbr 1500 ------- 0 2.0 5.0 74 85
r 1.558 2 1 cbr 1500 ------- 0 2.0 5.0 73 84
+ 1.558 1 3 cbr 1500 ------- 0 2.0 5.0 73 84
d 1.558 1 3 cbr 1500 ------- 0 2.0 5.0 73 84
- 1.56 2 1 cbr 1500 ------- 0 2.0 5.0 75 86
- 1.5652 1 3 cbr 1500 ------- 0 2.0 5.0 49 59
r 1.57 2 1 cbr 1500 ------- 0 2.0 5.0 74 85
+ 1.57 1 3 cbr 1500 ------- 0 2.0 5.0 74 85
- 1.572 2 1 cbr 1500 ------- 0 2.0 5.0 76 87
r 1.5752 1 3 cbr 1500 ------- 0 2.0 5.0 44 54
+ 1.5752 3 5 cbr 1500 ------- 0 2.0 5.0 44 54
- 1.5752 3 5 cbr 1500 ------- 0 2.0 5.0 44 54
r 1.582 2 1 cbr 1500 ------- 0 2.0 5.0 75 86
+ 1.582 1 3 cbr 1500 ------- 0 2.0 5.0 75 86
d 1.582 1 3 cbr 1500 ------- 0 2.0 5.0 75 86
- 1.584 2 1 cbr 1500 ------- 0 2.0 5.0 77 88
r 1.594 2 1 cbr 1500 ------- 0 2.0 5.0 76 87
+ 1.594 1 3 cbr 1500 ------- 0 2.0 5.0 76 87
d 1.594 1 3 cbr 1500 ------- 0 2.0 5.0 76 87
- 1.596 2 1 cbr 1500 ------- 0 2.0 5.0 78 89
r 1.5972 3 5 cbr 1500 ------- 0 2.0 5.0 44 54
r 1.606 2 1 cbr 1500 ------- 0 2.0 5.0 77 88
+ 1.606 1 3 cbr 1500 ------- 0 2.0 5.0 77 88
d 1.606 1 3 cbr 1500 ------- 0 2.0 5.0 77 88
- 1.608 2 1 cbr 1500 ------- 0 2.0 5.0 79 90
r 1.618 2 1 cbr 1500 ------- 0 2.0 5.0 78 89
+ 1.618 1 3 cbr 1500 ------- 0 2.0 5.0 78 89
d 1.618 1 3 cbr 1500 ------- 0 2.0 5.0 78 89
- 1.6252 1 3 cbr 1500 ------- 0 2.0 5.0 50 60
r 1.63 2 1 cbr 1500 ------- 0 2.0 5.0 79 90
+ 1.63 1 3 cbr 1500 ------- 0 2.0 5.0 79 90
r 1.6352 1 3 cbr 1500 ------- 0 2.0 5.0 49 59
+ 1.6352 3 5 cbr 1500 ------- 0 2.0 5.0 49 59
- 1.6352 3 5 cbr 1500 ------- 0 2.0 5.0 49 59
r 1.6572 3 5 cbr 1500 ------- 0 2.0 5.0 49 59
- 1.6852 1 3 cbr 1500 ------- 0 2.0 5.0 52 62
r 1.6952 1 3 cbr 1500 ------- 0 2.0 5.0 50 60
+ 1.6952 3 5 cbr 1500 ------- 0 2.0 5.0 50 60
- 1.6952 3 5 cbr 1500 ------- 0 2.0 5.0 50 60
+ 1.7 2 1 cbr 1500 ------- 0 2.0 5.0 80 91
- 1.7 2 1 cbr 1500 ------- 0 2.0 5.0 80 91
+ 1.7 2 1 cbr 1500 ------- 0 2.0 5.0 81 92
+ 1.7 2 1 cbr 1500 ------- 0 2.0 5.0 82 93
+ 1.7 2 1 cbr 1500 ------- 0 2.0 5.0 83 94
+ 1.7 2 1 cbr 1500 ------- 0 2.0 5.0 84 95
+ 1.7 2 1 cbr 1500 ------- 0 2.0 5.0 85 96
+ 1.7 2 1 cbr 1500 ------- 0 2.0 5.0 86 97
+ 1.7 2 1 cbr 1500 ------- 0 2.0 5.0 87 98
+ 1.7 2 1 cbr 1500 ------- 0 2.0 5.0 88 99
+ 1.7 2 1 cbr 1500 ------- 0 2.0 5.0 89 100
- 1.712 2 1 cbr 1500 ------- 0 2.0 5.0 81 92
r 1.7172 3 5 cbr 1500 ------- 0 2.0 5.0 50 60
r 1.722 2 1 cbr 1500 ------- 0 2.0 5.0 80 91
+ 1.722 1 3 cbr 1500 ------- 0 2.0 5.0 80 91
- 1.724 2 1 cbr 1500 ------- 0 2.0 5.0 82 93
r 1.734 2 1 cbr 1500 ------- 0 2.0 5.0 81 92
+ 1.734 1 3 cbr 1500 ------- 0 2.0 5.0 81 92
d 1.734 1 3 cbr 1500 ------- 0 2.0 5.0 81 92
- 1.736 2 1 cbr 1500 ------- 0 2.0 5.0 83 94
- 1.7452 1 3 cbr 1500 ------- 0 2.0 5.0 57 67
r 1.746 2 1 cbr 1500 ------- 0 2.0 5.0 82 93
+ 1.746 1 3 cbr 1500 ------- 0 2.0 5.0 82 93
- 1.748 2 1 cbr 1500 ------- 0 2.0 5.0 84 95
r 1.7552 1 3 cbr 1500 ------- 0 2.0 5.0 52 62
+ 1.7552 3 5 cbr 1500 ------- 0 2.0 5.0 52 62
- 1.7552 3 5 cbr 1500 ------- 0 2.0 5.0 52 62
r 1.758 2 1 cbr 1500 ------- 0 2.0 5.0 83 94
+ 1.758 1 3 cbr 1500 ------- 0 2.0 5.0 83 94
d 1.758 1 3 cbr 1500 ------- 0 2.0 5.0 83 94
- 1.76 2 1 cbr 1500 ------- 0 2.0 5.0 85 96
r 1.77 2 1 cbr 1500 ------- 0 2.0 5.0 84 95
+ 1.77 1 3 cbr 1500 ------- 0 2.0 5.0 84 95
d 1.77 1 3 cbr 1500 ------- 0 2.0 5.0 84 95
- 1.772 2 1 cbr 1500 ------- 0 2.0 5.0 86 97
r 1.7772 3 5 cbr 1500 ------- 0 2.0 5.0 52 62
r 1.782 2 1 cbr 1500 ------- 0 2.0 5.0 85 96
+ 1.782 1 3 cbr 1500 ------- 0 2.0 5.0 85 96
d 1.782 1 3 cbr 1500 ------- 0 2.0 5.0 85 96
- 1.784 2 1 cbr 1500 ------- 0 2.0 5.0 87 98
r 1.794 2 1 cbr 1500 ------- 0 2.0 5.0 86 97
+ 1.794 1 3 cbr 1500 ------- 0 2.0 5.0 86 97
d 1.794 1 3 cbr 1500 ------- 0 2.0 5.0 86 97
- 1.796 2 1 cbr 1500 ------- 0 2.0 5.0 88 99
- 1.8052 1 3 cbr 1500 ------- 0 2.0 5.0 60 71
r 1.806 2 1 cbr 1500 ------- 0 2.0 5.0 87 98
+ 1.806 1 3 cbr 1500 ------- 0 2.0 5.0 87 98
- 1.808 2 1 cbr 1500 ------- 0 2.0 5.0 89 100
r 1.8152 1 3 cbr 1500 ------- 0 2.0 5.0 57 67
+ 1.8152 3 5 cbr 1500 ------- 0 2.0 5.0 57 67
- 1.8152 3 5 cbr 1500 ------- 0 2.0 5.0 57 67
r 1.818 2 1 cbr 1500 ------- 0 2.0 5.0 88 99
+ 1.818 1 3 cbr 1500 ------- 0 2.0 5.0 88 99
d 1.818 1 3 cbr 1500 ------- 0 2.0 5.0 88 99
r 1.83 2 1 cbr 1500 ------- 0 2.0 5.0 89 100
+ 1.83 1 3 cbr 1500 ------- 0 2.0 5.0 89 100
d 1.83 1 3 cbr 1500 ------- 0 2.0 5.0 89 100
r 1.8372 3 5 cbr 1500 ------- 0 2.0 5.0 57 67
- 1.8652 1 3 cbr 1500 ------- 0 2.0 5.0 61 72
r 1.8752 1 3 cbr 1500 ------- 0 2.0 5.0 60 71
+ 1.8752 3 5 cbr 1500 ------- 0 2.0 5.0 60 71
- 1.8752 3 5 cbr 1500 ------- 0 2.0 5.0 60 71
r 1.8972 3 5 cbr 1500 ------- 0 2.0 5.0 60 71
+ 1.9 2 1 cbr 1500 ------- 0 2.0 5.0 90 101
- 1.9 2 1 cbr 1500 ------- 0 2.0 5.0 90 101
+ 1.9 2 1 cbr 1500 ------- 0 2.0 5.0 91 102
+ 1.9 2 1 cbr 1500 ------- 0 2.0 5.0 92 103
+ 1.9 2 1 cbr 1500 ------- 0 2.0 5.0 93 104
+ 1.9 2 1 cbr 1500 ------- 0 2.0 5.0 94 105
+ 1.9 2 1 cbr 1500 ------- 0 2.0 5.0 95 106
+ 1.9 2 1 cbr 1500 ------- 0 2.0 5.0 96 107
+ 1.9 2 1 cbr 1500 ------- 0 2.0 5.0 97 108
+ 1.9 2 1 cbr 1500 ------- 0 2.0 5.0 98 109
+ 1.9 2 1 cbr 1500 ------- 0 2.0 5.0 99 110
- 1.912 2 1 cbr 1500 ------- 0 2.0 5.0 91 102
r 1.922 2 1 cbr 1500 ------- 0 2.0 5.0 90 101
+ 1.922 1 3 cbr 1500 ------- 0 2.0 5.0 90 101
- 1.924 2 1 cbr 1500 ------- 0 2.0 5.0 92 103
- 1.9252 1 3 cbr 1500 ------- 0 2.0 5.0 66 77
r 1.934 2 1 cbr 1500 ------- 0 2.0 5.0 91 102
+ 1.934 1 3 cbr 1500 ------- 0 2.0 5.0 91 102
r 1.9352 1 3 cbr 1500 ------- 0 2.0 5.0 61 72
+ 1.9352 3 5 cbr 1500 ------- 0 2.0 5.0 61 72
- 1.9352 3 5 cbr 1500 ------- 0 2.0 5.0 61 72
- 1.936 2 1 cbr 1500 ------- 0 2.0 5.0 93 104
r 1.946 2 1 cbr 1500 ------- 0 2.0 5.0 92 103
+ 1.946 1 3 cbr 1500 ------- 0 2.0 5.0 92 103
d 1.946 1 3 cbr 1500 ------- 0 2.0 5.0 92 103
- 1.948 2 1 cbr 1500 ------- 0 2.0 5.0 94 105
r 1.9572 3 5 cbr 1500 ------- 0 2.0 5.0 61 72
r 1.958 2 1 cbr 1500 ------- 0 2.0 5.0 93 104
+ 1.958 1 3 cbr 1500 ------- 0 2.0 5.0 93 104
d 1.958 1 3 cbr 1500 ------- 0 2.0 5.0 93 104
- 1.96 2 1 cbr 1500 ------- 0 2.0 5.0 95 106
r 1.97 2 1 cbr 1500 ------- 0 2.0 5.0 94 105
+ 1.97 1 3 cbr 1500 ------- 0 2.0 5.0 94 105
d 1.97 1 3 cbr 1500 ------- 0 2.0 5.0 94 105
- 1.972 2 1 cbr 1500 ------- 0 2.0 5.0 96 107
r 1.982 2 1 cbr 1500 ------- 0 2.0 5.0 95 106
+ 1.982 1 3 cbr 1500 ------- 0 2.0 5.0 95 106
d 1.982 1 3 cbr 1500 ------- 0 2.0 5.0 95 106
- 1.984 2 1 cbr 1500 ------- 0 2.0 5.0 97 108
- 1.9852 1 3 cbr 1500 ------- 0 2.0 5.0 70 81
+ 1.98976 0 1 tcp 1540 ---A--- 0 0.0 4.0 3 111
- 1.98976 0 1 tcp 1540 ---A--- 0 0.0 4.0 3 111
r 1.994 2 1 cbr 1500 ------- 0 2.0 5.0 96 107
+ 1.994 1 3 cbr 1500 ------- 0 2.0 5.0 96 107