V -t * -v 1.0a5 -a 0
A -t * -n 1 -p 0 -o 0x7fffffff -c 30 -a 1
A -t * -h 1 -m 1073741823 -s 0
n -t * -a 4 -s 4 -S UP -v circle -c black -i black
n -t * -a 0 -s 0 -S UP -v circle -c black -i black
n -t * -a 5 -s 5 -S UP -v circle -c black -i black
n -t * -a 1 -s 1 -S UP -v circle -c black -i black
n -t * -a 2 -s 2 -S UP -v circle -c black -i black
n -t * -a 3 -s 3 -S UP -v circle -c black -i black
l -t * -s 0 -d 1 -S UP -r 1000000 -D 0.01 -c black
l -t * -s 1 -d 2 -S UP -r 1000000 -D 0.01 -c black
l -t * -s 1 -d 3 -S UP -r 200000 -D 0.01 -c black
l -t * -s 3 -d 4 -S UP -r 1000000 -D 0.01 -c black
l -t * -s 3 -d 5 -S UP -r 1000000 -D 0.01 -c black
q -t * -s 3 -d 1 -a 0.5
q -t * -s 1 -d 3 -a 0.5
+ -t 0.1 -s 0 -d 1 -p tcp -e 40 -c 0 -i 0 -a 0 -x {0.0 4.0 0 ------- null}
- -t 0.1 -s 0 -d 1 -p tcp -e 40 -c 0 -i 0 -a 0 -x {0.0 4.0 0 ------- null}
h -t 0.1 -s 0 -d 1 -p tcp -e 40 -c 0 -i 0 -a 0 -x {0.0 4.0 -1 ------- null}
+ -t 0.1 -s 2 -d 1 -p cbr -e 1500 -c 0 -i 1 -a 0 -x {2.0 5.0 0 ------- null}
- -t 0.1 -s 2 -d 1 -p cbr -e 1500 -c 0 -i 1 -a 0 -x {2.0 5.0 0 ------- null}
h -t 0.1 -s 2 -d 1 -p cbr -e 1500 -c 0 -i 1 -a 0 -x {2.0 5.0 -1 ------- null}
+ -t 0.1 -s 2 -d 1 -p cbr -e 1500 -c 0 -i 2 -a 0 -x {2.0 5.0 1 ------- null}
+ -t 0.1 -s 2 -d 1 -p cbr -e 1500 -c 0 -i 3 -a 0 -x {2.0 5.0 2 ------- null}
+ -t 0.1 -s 2 -d 1 -p cbr -e 1500 -c 0 -i 4 -a 0 -x {2.0 5.0 3 ------- null}
+ -t 0.1 -s 2 -d 1 -p cbr -e 1500 -c 0 -i 5 -a 0 -x {2.0 5.0 4 ------- null}
+ -t 0.1 -s 2 -d 1 -p cbr -e 1500 -c 0 -i 6 -a 0 -x {2.0 5.0 5 ------- null}
+ -t 0.1 -s 2 -d 1 -p cbr -e 1500 -c 0 -i 7 -a 0 -x {2.0 5.0 6 ------- null}
+ -t 0.1 -s 2 -d 1 -p cbr -e 1500 -c 0 -i 8 -a 0 -x {2.0 5.0 7 ------- null}
+ -t 0.1 -s 2 -d 1 -p cbr -e 1500 -c 0 -i 9 -a 0 -x {2.0 5.0 8 ------- null}
+ -t 0.1 -s 2 -d 1 -p cbr -e 1500 -c 0 -i 10 -a 0 -x {2.0 5.0 9 ------- null}
r -t 0.11032 -s 0 -d 1 -p tcp -e 40 -c 0 -i 0 -a 0 -x {0.0 4.0 0 ------- null}
+ -t 0.11032 -s 1 -d 3 -p tcp -e 40 -c 0 -i 0 -a 0 -x {0.0 4.0 0 ------- null}
- -t 0.11032 -s 1 -d 3 -p tcp -e 40 -c 0 -i 0 -a 0 -x {0.0 4.0 0 ------- null}
h -t 0.11032 -s 1 -d 3 -p tcp -e 40 -c 0 -i 0 -a 0 -x {0.0 4.0 -1 ------- null}
- -t 0.112 -s 2 -d 1 -p cbr -e 1500 -c 0 -i 2 -a 0 -x {2.0 5.0 1 ------- null}
h -t 0.112 -s 2 -d 1 -p cbr -e 1500 -c 0 -i 2 -a 0 -x {2.0 5.0 -1 ------- null}
r -t 0.12192 -s 1 -d 3 -p tcp -e 40 -c 0 -i 0 -a 0 -x {0.0 4.0 0 ------- null}
+ -t 0.12192 -s 3 -d 4 -p tcp -e 40 -c 0 -i 0 -a 0 -x {0.0 4.0 0 ------- null}
- -t 0.12192 -s 3 -d 4 -p tcp -e 40 -c 0 -i 0 -a 0 -x {0.0 4.0 0 ------- null}
h -t 0.12192 -s 3 -d 4 -p tcp -e 40 -c 0 -i 0 -a 0 -x {0.0 4.0 -1 ------- null}
r -t 0.122 -s 2 -d 1 -p cbr -e 1500 -c 0 -i 1 -a 0 -x {2.0 5.0 0 ------- null}
+ -t 0.122 -s 1 -d 3 -p cbr -e 1500 -c 0 -i 1 -a 0 -x {2.0 5.0 0 ------- null}
- -t 0.122 -s 1 -d 3 -p cbr -e 1500 -c 0 -i 1 -a 0 -x {2.0 5.0 0 ------- null}
h -t 0.122 -s 1 -d 3 -p cbr -e 1500 -c 0 -i 1 -a 0 -x {2.0 5.0 -1 ------- null}
- -t 0.124 -s 2 -d 1 -p cbr -e 1500 -c 0 -i 3 -a 0 -x {2.0 5.0 2 ------- null}
h -t 0.124 -s 2 -d 1 -p cbr -e 1500 -c 0 -i 3 -a 0 -x {2.0 5.0 -1 ------- null}
r -t 0.13224 -s 3 -d 4 -p tcp -e 40 -c 0 -i 0 -a 0 -x {0.0 4.0 0 ------- null}
+ -t 0.13224 -s 4 -d 3 -p ack -e 40 -c 0 -i 11 -a 0 -x {4.0 0.0 0 ------- null}
- -t 0.13224 -s 4 -d 3 -p ack -e 40 -c 0 -i 11 -a 0 -x {4.0 0.0 0 ------- null}
h -t 0.13224 -s 4 -d 3 -p ack -e 40 -c 0 -i 11 -a 0 -x {4.0 0.0 -1 ------- null}
r -t 0.134 -s 2 -d 1 -p cbr -e 1500 -c 0 -i 2 -a 0 -x {2.0 5.0 1 ------- null}
+ -t 0.134 -s 1 -d 3 -p cbr -e 1500 -c 0 -i 2 -a 0 -x {2.0 5.0 1 ------- null}
- -t 0.136 -s 2 -d 1 -p cbr -e 1500 -c 0 -i 4 -a 0 -x {2.0 5.0 3 ------- null}
h -t 0.136 -s 2 -d 1 -p cbr -e 1500 -c 0 -i 4 -a 0 -x {2.0 5.0 -1 ------- null}
r -t 0.14256 -s 4 -d 3 -p ack -e 40 -c 0 -i 11 -a 0 -x {4.0 0.0 0 ------- null}
+ -t 0.14256 -s 3 -d 1 -p ack -e 40 -c 0 -i 11 -a 0 -x {4.0 0.0 0 ------- null}
- -t 0.14256 -s 3 -d 1 -p ack -e 40 -c 0 -i 11 -a 0 -x {4.0 0.0 0 ------- null}
h -t 0.14256 -s 3 -d 1 -p ack -e 40 -c 0 -i 11 -a 0 -x {4.0 0.0 -1 ------- null}
r -t 0.146 -s 2 -d 1 -p cbr -e 1500 -c 0 -i 3 -a 0 -x {2.0 5.0 2 ------- null}
+ -t 0.146 -s 1 -d 3 -p cbr -e 1500 -c 0 -i 3 -a 0 -x {2.0 5.0 2 ------- null}
- -t 0.148 -s 2 -d 1 -p cbr -e 1500 -c 0 -i 5 -a 0 -x {2.0 5.0 4 ------- null}
h -t 0.148 -s 2 -d 1 -p cbr -e 1500 -c 0 -i 5 -a 0 -x {2.0 5.0 -1 ------- null}
r -t 0.15416 -s 3 -d 1 -p ack -e 40 -c 0 -i 11 -a 0 -x {4.0 0.0 0 ------- null}
+ -t 0.15416 -s 1 -d 0 -p ack -e 40 -c 0 -i 11 -a 0 -x {4.0 0.0 0 ------- null}
- -t 0.15416 -s 1 -d 0 -p ack -e 40 -c 0 -i 11 -a 0 -x {4.0 0.0 0 ------- null}
h -t 0.15416 -s 1 -d 0 -p ack -e 40 -c 0 -i 11 -a 0 -x {4.0 0.0 -1 ------- null}
r -t 0.158 -s 2 -d 1 -p cbr -e 1500 -c 0 -i 4 -a 0 -x {2.0 5.0 3 ------- null}
+ -t 0.158 -s 1 -d 3 -p cbr -e 1500 -c 0 -i 4 -a 0 -x {2.0 5.0 3 ------- null}
- -t 0.16 -s 2 -d 1 -p cbr -e 1500 -c 0 -i 6 -a 0 -x {2.0 5.0 5 ------- null}
h -t 0.16 -s 2 -d 1 -p cbr -e 1500 -c 0 -i 6 -a 0 -x {2.0 5.0 -1 ------- null}
r -t 0.16448 -s 1 -d 0 -p ack -e 40 -c 0 -i 11 -a 0 -x {4.0 0.0 0 ------- null}
+ -t 0.16448 -s 0 -d 1 -p tcp -e 1540 -c 0 -i 12 -a 0 -x {0.0 4.0 1 ------- null}
- -t 0.16448 -s 0 -d 1 -p tcp -e 1540 -c 0 -i 12 -a 0 -x {0.0 4.0 1 ------- null}
h -t 0.16448 -s 0 -d 1 -p tcp -e 1540 -c 0 -i 12 -a 0 -x {0.0 4.0 -1 ------- null}
+ -t 0.16448 -s 0 -d 1 -p tcp -e 1540 -c 0 -i 13 -a 0 -x {0.0 4.0 2 ------- null}
r -t 0.17 -s 2 -d 1 -p cbr -e 1500 -c 0 -i 5 -a 0 -x {2.0 5.0 4 ------- null}
+ -t 0.17 -s 1 -d 3 -p cbr -e 1500 -c 0 -i 5 -a 0 -x {2.0 5.0 4 ------- null}
- -t 0.172 -s 2 -d 1 -p cbr -e 1500 -c 0 -i 7 -a 0 -x {2.0 5.0 6 ------- null}
h -t 0.172 -s 2 -d 1 -p cbr -e 1500 -c 0 -i 7 -a 0 -x {2.0 5.0 -1 ------- null}
- -t 0.1768 -s 0 -d 1 -p tcp -e 1540 -c 0 -i 13 -a 0 -x {0.0 4.0 2 ------- null}
h -t 0.1768 -s 0 -d 1 -p tcp -e 1540 -c 0 -i 13 -a 0 -x {0.0 4.0 -1 ------- null}
- -t 0.182 -s 1 -d 3 -p cbr -e 1500 -c 0 -i 2 -a 0 -x {2.0 5.0 1 ------- null}
h -t 0.182 -s 1 -d 3 -p cbr -e 1500 -c 0 -i 2 -a 0 -x {2.0 5.0 -1 ------- null}
r -t 0.182 -s 2 -d 1 -p cbr -e 1500 -c 0 -i 6 -a 0 -x {2.0 5.0 5 ------- null}
+ -t 0.182 -s 1 -d 3 -p cbr -e 1500 -c 0 -i 6 -a 0 -x {2.0 5.0 5 ------- null}
- -t 0.184 -s 2 -d 1 -p cbr -e 1500 -c 0 -i 8 -a 0 -x {2.0 5.0 7 ------- null}
h -t 0.184 -s 2 -d 1 -p cbr -e 1500 -c 0 -i 8 -a 0 -x {2.0 5.0 -1 ------- null}
r -t 0.1868 -s 0 -d 1 -p tcp -e 1540 -c 0 -i 12 -a 0 -x {0.0 4.0 1 ------- null}
+ -t 0.1868 -s 1 -d 3 -p tcp -e 1540 -c 0 -i 12 -a 0 -x {0.0 4.0 1 ------- null}
r -t 0.192 -s 1 -d 3 -p cbr -e 1500 -c 0 -i 1 -a 0 -x {2.0 5.0 0 ------- null}
+ -t 0.192 -s 3 -d 5 -p cbr -e 1500 -c 0 -i 1 -a 0 -x {2.0 5.0 0 ------- null}
- -t 0.192 -s 3 -d 5 -p cbr -e 1500 -c 0 -i 1 -a 0 -x {2.0 5.0 0 ------- null}
h -t 0.192 -s 3 -d 5 -p cbr -e 1500 -c 0 -i 1 -a 0 -x {2.0 5.0 -1 ------- null}
r -t 0.194 -s 2 -d 1 -p cbr -e 1500 -c 0 -i 7 -a 0 -x {2.0 5.0 6 ------- null}
+ -t 0.194 -s 1 -d 3 -p cbr -e 1500 -c 0 -i 7 -a 0 -x {2.0 5.0 6 ------- null}
- -t 0.196 -s 2 -d 1 -p cbr -e 1500 -c 0 -i 9 -a 0 -x {2.0 5.0 8 ------- null}
h -t 0.196 -s 2 -d 1 -p cbr -e 1500 -c 0 -i 9 -a 0 -x {2.0 5.0 -1 ------- null}
r -t 0.19912 -s 0 -d 1 -p tcp -e 1540 -c 0 -i 13 -a 0 -x {0.0 4.0 2 ------- null}
+ -t 0.19912 -s 1 -d 3 -p tcp -e 1540 -c 0 -i 13 -a 0 -x {0.0 4.0 2 ------- null}
r -t 0.206 -s 2 -d 1 -p cbr -e 1500 -c 0 -i 8 -a 0 -x {2.0 5.0 7 ------- null}
+ -t 0.206 -s 1 -d 3 -p cbr -e 1500 -c 0 -i 8 -a 0 -x {2.0 5.0 7 ------- null}
- -t 0.208 -s 2 -d 1 -p cbr -e 1500 -c 0 -i 10 -a 0 -x {2.0 5.0 9 ------- null}
h -t 0.208 -s 2 -d 1 -p cbr -e 1500 -c 0 -i 10 -a 0 -x {2.0 5.0 -1 ------- null}
r -t 0.214 -s 3 -d 5 -p cbr -e 1500 -c 0 -i 1 -a 0 -x {2.0 5.0 0 ------- null}
r -t 0.218 -s 2 -d 1 -p cbr -e 1500 -c 0 -i 9 -a 0 -x {2.0 5.0 8 ------- null}
+ -t 0.218 -s 1 -d 3 -p cbr -e 1500 -c 0 -i 9 -a 0 -x {2.0 5.0 8 ------- null}
r -t 0.23 -s 2 -d 1 -p cbr -e 1500 -c 0 -i 10 -a 0 -x {2.0 5.0 9 ------- null}
+ -t 0.23 -s 1 -d 3 -p cbr -e 1500 -c 0 -i 10 -a 0 -x {2.0 5.0 9 ------- null}
d -t 0.23 -s 1 -d 3 -p cbr -e 1500 -c 0 -i 10 -a 0 -x {2.0 5.0 9 ------- null}
- -t 0.242 -s 1 -d 3 -p cbr -e 1500 -c 0 -i 3 -a 0 -x {2.0 5.0 2 ------- null}
h -t 0.242 -s 1 -d 3 -p cbr -e 1500 -c 0 -i 3 -a 0 -x {2.0 5.0 -1 ------- null}
r -t 0.252 -s 1 -d 3 -p cbr -e 1500 -c 0 -i 2 -a 0 -x {2.0 5.0 1 ------- null}
+ -t 0.252 -s 3 -d 5 -p cbr -e 1500 -c 0 -i 2 -a 0 -x {2.0 5.0 1 ------- null}
- -t 0.252 -s 3 -d 5 -p cbr -e 1500 -c 0 -i 2 -a 0 -x {2.0 5.0 1 ------- null}
h -t 0.252 -s 3 -d 5 -p cbr -e 1500 -c 0 -i 2 -a 0 -x {2.0 5.0 -1 ------- null}
r -t 0.274 -s 3 -d 5 -p cbr -e 1500 -c 0 -i 2 -a 0 -x {2.0 5.0 1 ------- null}
+ -t 0.3 -s 2 -d 1 -p cbr -e 1500 -c 0 -i 14 -a 0 -x {2.0 5.0 10 ------- null}
- -t 0.3 -s 2 -d 1 -p cbr -e 1500 -c 0 -i 14 -a 0 -x {2.0 5.0 10 ------- null}
h -t 0.3 -s 2 -d 1 -p cbr -e 1500 -c 0 -i 14 -a 0 -x {2.0 5.0 -1 ------- null}
+ -t 0.3 -s 2 -d 1 -p cbr -e 1500 -c 0 -i 15 -a 0 -x {2.0 5.0 11 ------- null}
+ -t 0.3 -s 2 -d 1 -p cbr -e 1500 -c 0 -i 16 -a 0 -x {2.0 5.0 12 ------- null}
+ -t 0.3 -s 2 -d 1 -p cbr -e 1500 -c 0 -i 17 -a 0 -x {2.0 5.0 13 ------- null}
+ -t 0.3 -s 2 -d 1 -p cbr -e 1500 -c 0 -i 18 -a 0 -x {2.0 5.0 14 ------- null}
+ -t 0.3 -s 2 -d 1 -p cbr -e 1500 -c 0 -i 19 -a 0 -x {2.0 5.0 15 ------- null}
+ -t 0.3 -s 2 -d 1 -p cbr -e 1500 -c 0 -i 20 -a 0 -x {2.0 5.0 16 ------- null}
+ -t 0.3 -s 2 -d 1 -p cbr -e 1500 -c 0 -i 21 -a 0 -x {2.0 5.0 17 ------- null}
+ -t 0.3 -s 2 -d 1 -p cbr -e 1500 -c 0 -i 22 -a 0 -x {2.0 5.0 18 ------- null}
+ -t 0.3 -s 2 -d 1 -p cbr -e 1500 -c 0 -i 23 -a 0 -x {2.0 5.0 19 ------- null}
- -t 0.302 -s 1 -d 3 -p cbr -e 1500 -c 0 -i 4 -a 0 -x {2.0 5.0 3 ------- null}
h -t 0.302 -s 1 -d 3 -p cbr -e 1500 -c 0 -i 4 -a 0 -x {2.0 5.0 -1 ------- null}
r -t 0.312 -s 1 -d 3 -p cbr -e 1500 -c 0 -i 3 -a 0 -x {2.0 5.0 2 ------- null}
+ -t 0.312 -s 3 -d 5 -p cbr -e 1500 -c 0 -i 3 -a 0 -x {2.0 5.0 2 ------- null}
- -t 0.312 -s 3 -d 5 -p cbr -e 1500 -c 0 -i 3 -a 0 -x {2.0 5.0 2 ------- null}
h -t 0.312 -s 3 -d 5 -p cbr -e 1500 -c 0 -i 3 -a 0 -x {2.0 5.0 -1 ------- null}
- -t 0.312 -s 2 -d 1 -p cbr -e 1500 -c 0 -i 15 -a 0 -x {2.0 5.0 11 ------- null}
h -t 0.312 -s 2 -d 1 -p cbr -e 1500 -c 0 -i 15 -a 0 -x {2.0 5.0 -1 ------- null}
r -t 0.322 -s 2 -d 1 -p cbr -e 1500 -c 0 -i 14 -a 0 -x {2.0 5.0 10 ------- null}
+ -t 0.322 -s 1 -d 3 -p cbr -e 1500 -c 0 -i 14 -a 0 -x {2.0 5.0 10 ------- null}
- -t 0.324 -s 2 -d 1 -p cbr -e 1500 -c 0 -i 16 -a 0 -x {2.0 5.0 12 ------- null}
h -t 0.324 -s 2 -d 1 -p cbr -e 1500 -c 0 -i 16 -a 0 -x {2.0 5.0 -1 ------- null}
r -t 0.334 -s 3 -d 5 -p cbr -e 1500 -c 0 -i 3 -a 0 -x {2.0 5.0 2 ------- null}
r -t 0.334 -s 2 -d 1 -p cbr -e 1500 -c 0 -i 15 -a 0 -x {2.0 5.0 11 ------- null}
+ -t 0.334 -s 1 -d 3 -p cbr -e 1500 -c 0 -i 15 -a 0 -x {2.0 5.0 11 ------- null}
- -t 0.336 -s 2 -d 1 -p cbr -e 1500 -c 0 -i 17 -a 0 -x {2.0 5.0 13 ------- null}
h -t 0.336 -s 2 -d 1 -p cbr -e 1500 -c 0 -i 17 -a 0 -x {2.0 5.0 -1 ------- null}
r -t 0.346 -s 2 -d 1 -p cbr -e 1500 -c 0 -i 16 -a 0 -x {2.0 5.0 12 ------- null}
+ -t 0.346 -s 1 -d 3 -p cbr -e 1500 -c 0 -i 16 -a 0 -x {2.0 5.0 12 ------- null}
d -t 0.346 -s 1 -d 3 -p cbr -e 1500 -c 0 -i 16 -a 0 -x {2.0 5.0 12 ------- null}
- -t 0.348 -s 2 -d 1 -p cbr -e 1500 -c 0 -i 18 -a 0 -x {2.0 5.0 14 ------- null}
h -t 0.348 -s 2 -d 1 -p cbr -e 1500 -c 0 -i 18 -a 0 -x {2.0 5.0 -1 ------- null}
r -t 0.358 -s 2 -d 1 -p cbr -e 1500 -c 0 -i 17 -a 0 -x {2.0 5.0 13 ------- null}
+ -t 0.358 -s 1 -d 3 -p cbr -e 1500 -c 0 -i 17 -a 0 -x {2.0 5.0 13 ------- null}
d -t 0.358 -s 1 -d 3 -p cbr -e 1500 -c 0 -i 17 -a 0 -x {2.0 5.0 13 ------- null}
- -t 0.36 -s 2 -d 1 -p cbr -e 1500 -c 0 -i 19 -a 0 -x {2.0 5.0 15 ------- null}
h -t 0.36 -s 2 -d 1 -p cbr -e 1500 -c 0 -i 19 -a 0 -x {2.0 5.0 -1 ------- null}
- -t 0.362 -s 1 -d 3 -p cbr -e 1500 -c 0 -i 5 -a 0 -x {2.0 5.0 4 ------- null}
h -t 0.362 -s 1 -d 3 -p cbr -e 1500 -c 0 -i 5 -a 0 -x {2.0 5.0 -1 ------- null}
r -t 0.37 -s 2 -d 1 -p cbr -e 1500 -c 0 -i 18 -a 0 -x {2.0 5.0 14 ------- null}
+ -t 0.37 -s 1 -d 3 -p cbr -e 1500 -c 0 -i 18 -a 0 -x {2.0 5.0 14 ------- null}
r -t 0.372 -s 1 -d 3 -p cbr -e 1500 -c 0 -i 4 -a 0 -x {2.0 5.0 3 ------- null}
+ -t 0.372 -s 3 -d 5 -p cbr -e 1500 -c 0 -i 4 -a 0 -x {2.0 5.0 3 ------- null}
- -t 0.372 -s 3 -d 5 -p cbr -e 1500 -c 0 -i 4 -a 0 -x {2.0 5.0 3 ------- null}
h -t 0.372 -s 3 -d 5 -p cbr -e 1500 -c 0 -i 4 -a 0 -x {2.0 5.0 -1 ------- null}
- -t 0.372 -s 2 -d 1 -p cbr -e 1500 -c 0 -i 20 -a 0 -x {2.0 5.0 16 ------- null}
h -t 0.372 -s 2 -d 1 -p cbr -e 1500 -c 0 -i 20 -a 0 -x {2.0 5.0 -1 ------- null}
+ -t 0.37448 -s 0 -d 1 -p tcp -e 1540 -c 0 -i 24 -a 0 -x {0.0 4.0 1 ---A--- null}
- -t 0.37448 -s 0 -d 1 -p tcp -e 1540 -c 0 -i 24 -a 0 -x {0.0 4.0 1 ---A--- null}
h -t 0.37448 -s 0 -d 1 -p tcp -e 1540 -c 0 -i 24 -a 0 -x {0.0 4.0 -1 ---A--- null}
r -t 0.382 -s 2 -d 1 -p cbr -e 1500 -c 0 -i 19 -a 0 -x {2.0 5.0 15 ------- null}
+ -t 0.382 -s 1 -d 3 -p cbr -e 1500 -c 0 -i 19 -a 0 -x {2.0 5.0 15 ------- null}
d -t 0.382 -s 1 -d 3 -p cbr -e 1500 -c 0 -i 19 -a 0 -x {2.0 5.0 15 ------- null}
- -t 0.384 -s 2 -d 1 -p cbr -e 1500 -c 0 -i 21 -a 0 -x {2.0 5.0 17 ------- null}
h -t 0.384 -s 2 -d 1 -p cbr -e 1500 -c 0 -i 21 -a 0 -x {2.0 5.0 -1 ------- null}
r -t 0.394 -s 3 -d 5 -p cbr -e 1500 -c 0 -i 4 -a 0 -x {2.0 5.0 3 ------- null}
r -t 0.394 -s 2 -d 1 -p cbr -e 1500 -c 0 -i 20 -a 0 -x {2.0 5.0 16 ------- null}
+ -t 0.394 -s 1 -d 3 -p cbr -e 1500 -c 0 -i 20 -a 0 -x {2.0 5.0 16 ------- null}
d -t 0.394 -s 1 -d 3 -p cbr -e 1500 -c 0 -i 20 -a 0 -x {2.0 5.0 16 ------- null}
- -t 0.396 -s 2 -d 1 -p cbr -e 1500 -c 0 -i 22 -a 0 -x {2.0 5.0 18 ------- null}
h -t 0.396 -s 2 -d 1 -p cbr -e 1500 -c 0 -i 22 -a 0 -x {2.0 5.0 -1 ------- null}
r -t 0.3968 -s 0 -d 1 -p tcp -e 1540 -c 0 -i 24 -a 0 -x {0.0 4.0 1 ---A--- null}
+ -t 0.3968 -s 1 -d 3 -p tcp -e 1540 -c 0 -i 24 -a 0 -x {0.0 4.0 1 ---A--- null}
d -t 0.3968 -s 1 -d 3 -p tcp -e 1540 -c 0 -i 24 -a 0 -x {0.0 4.0 1 ---A--- null}
r -t 0.406 -s 2 -d 1 -p cbr -e 1500 -c 0 -i 21 -a 0 -x {2.0 5.0 17 ------- null}
+ -t 0.406 -s 1 -d 3 -p cbr -e 1500 -c 0 -i 21 -a 0 -x {2.0 5.0 17 ------- null}
d -t 0.406 -s 1 -d 3 -p cbr -e 1500 -c 0 -i 21 -a 0 -x {2.0 5.0 17 ------- null}
- -t 0.408 -s 2 -d 1 -p cbr -e 1500 -c 0 -i 23 -a 0 -x {2.0 5.0 19 ------- null}
h -t 0.408 -s 2 -d 1 -p cbr -e 1500 -c 0 -i 23 -a 0 -x {2.0 5.0 -1 ------- null}
r -t 0.418 -s 2 -d 1 -p cbr -e 1500 -c 0 -i 22 -a 0 -x {2.0 5.0 18 ------- null}
+ -t 0.418 -s 1 -d 3 -p cbr -e 1500 -c 0 -i 22 -a 0 -x {2.0 5.0 18 ------- null}
d -t 0.418 -s 1 -d 3 -p cbr -e 1500 -c 0 -i 22 -a 0 -x {2.0 5.0 18 ------- null}
- -t 0.422 -s 1 -d 3 -p cbr -e 1500 -c 0 -i 6 -a 0 -x {2.0 5.0 5 ------- null}
h -t 0.422 -s 1 -d 3 -p cbr -e 1500 -c 0 -i 6 -a 0 -x {2.0 5.0 -1 ------- null}
r -t 0.43 -s 2 -d 1 -p cbr -e 1500 -c 0 -i 23 -a 0 -x {2.0 5.0 19 ------- null}
+ -t 0.43 -s 1 -d 3 -p cbr -e 1500 -c 0 -i 23 -a 0 -x {2.0 5.0 19 ------- null}
r -t 0.432 -s 1 -d 3 -p cbr -e 1500 -c 0 -i 5 -a 0 -x {2.0 5.0 4 ------- null}
+ -t 0.432 -s 3 -d 5 -p cbr -e 1500 -c 0 -i 5 -a 0 -x {2.0 5.0 4 ------- null}
- -t 0.432 -s 3 -d 5 -p cbr -e 1500 -c 0 -i 5 -a 0 -x {2.0 5.0 4 ------- null}
h -t 0.432 -s 3 -d 5 -p cbr -e 1500 -c 0 -i 5 -a 0 -x {2.0 5.0 -1 ------- null}
r -t 0.454 -s 3 -d 5 -p cbr -e 1500 -c 0 -i 5 -a 0 -x {2.0 5.0 4 ------- null}
- -t 0.482 -s 1 -d 3 -p tcp -e 1540 -c 0 -i 12 -a 0 -x {0.0 4.0 1 ------- null}
h -t 0.482 -s 1 -d 3 -p tcp -e 1540 -c 0 -i 12 -a 0 -x {0.0 4.0 -1 ------- null}
r -t 0.492 -s 1 -d 3 -p cbr -e 1500 -c 0 -i 6 -a 0 -x {2.0 5.0 5 ------- null}
+ -t 0.492 -s 3 -d 5 -p cbr -e 1500 -c 0 -i 6 -a 0 -x {2.0 5.0 5 ------- null}
- -t 0.492 -s 3 -d 5 -p cbr -e 1500 -c 0 -i 6 -a 0 -x {2.0 5.0 5 ------- null}
h -t 0.492 -s 3 -d 5 -p cbr -e 1500 -c 0 -i 6 -a 0 -x {2.0 5.0 -1 ------- null}
+ -t 0.5 -s 2 -d 1 -p cbr -e 1500 -c 0 -i 25 -a 0 -x {2.0 5.0 20 ------- null}
- -t 0.5 -s 2 -d 1 -p cbr -e 1500 -c 0 -i 25 -a 0 -x {2.0 5.0 20 ------- null}
h -t 0.5 -s 2 -d 1 -p cbr -e 1500 -c 0 -i 25 -a 0 -x {2.0 5.0 -1 ------- null}
+ -t 0.5 -s 2 -d 1 -p cbr -e 1500 -c 0 -i 26 -a 0 -x {2.0 5.0 21 ------- null}
+ -t 0.5 -s 2 -d 1 -p cbr -e 1500 -c 0 -i 27 -a 0 -x {2.0 5.0 22 ------- null}
+ -t 0.5 -s 2 -d 1 -p cbr -e 1500 -c 0 -i 28 -a 0 -x {2.0 5.0 23 ------- null}
+ -t 0.5 -s 2 -d 1 -p cbr -e 1500 -c 0 -i 29 -a 0 -x {2.0 5.0 24 ------- null}
+ -t 0.5 -s 2 -d 1 -p cbr -e 1500 -c 0 -i 30 -a 0 -x {2.0 5.0 25 ------- null}
+ -t 0.5 -s 2 -d 1 -p cbr -e 1500 -c 0 -i 31 -a 0 -x {2.0 5.0 26 ------- null}
+ -t 0.5 -s 2 -d 1 -p cbr -e 1500 -c 0 -i 32 -a 0 -x {2.0 5.0 27 ------- null}
+ -t 0.5 -s 2 -d 1 -p cbr -e 1500 -c 0 -i 33 -a 0 -x {2.0 5.0 28 ------- null}
+ -t 0.5 -s 2 -d 1 -p cbr -e 1500 -c 0 -i 34 -a 0 -x {2.0 5.0 29 ------- null}
- -t 0.512 -s 2 -d 1 -p cbr -e 1500 -c 0 -i 26 -a 0 -x {2.0 5.0 21 ------- null}
h -t 0.512 -s 2 -d 1 -p cbr -e 1500 -c 0 -i 26 -a 0 -x {2.0 5.0 -1 ------- null}
r -t 0.514 -s 3 -d 5 -p cbr -e 1500 -c 0 -i 6 -a 0 -x {2.0 5.0 5 ------- null}
r -t 0.522 -s 2 -d 1 -p cbr -e 1500 -c 0 -i 25 -a 0 -x {2.0 5.0 20 ------- null}
+ -t 0.522 -s 1 -d 3 -p cbr -e 1500 -c 0 -i 25 -a 0 -x {2.0 5.0 20 ------- null}
- -t 0.524 -s 2 -d 1 -p cbr -e 1500 -c 0 -i 27 -a 0 -x {2.0 5.0 22 ------- null}
h -t 0.524 -s 2 -d 1 -p cbr -e 1500 -c 0 -i 27 -a 0 -x {2.0 5.0 -1 ------- null}
r -t 0.534 -s 2 -d 1 -p cbr -e 1500 -c 0 -i 26 -a 0 -x {2.0 5.0 21 ------- null}
+ -t 0.534 -s 1 -d 3 -p cbr -e 1500 -c 0 -i 26 -a 0 -x {2.0 5.0 21 ------- null}
d -t 0.534 -s 1 -d 3 -p cbr -e 1500 -c 0 -i 26 -a 0 -x {2.0 5.0 21 ------- null}
- -t 0.536 -s 2 -d 1 -p cbr -e 1500 -c 0 -i 28 -a 0 -x {2.0 5.0 23 ------- null}
h -t 0.536 -s 2 -d 1 -p cbr -e 1500 -c 0 -i 28 -a 0 -x {2.0 5.0 -1 ------- null}
- -t 0.5436 -s 1 -d 3 -p cbr -e 1500 -c 0 -i 7 -a 0 -x {2.0 5.0 6 ------- null}
h -t 0.5436 -s 1 -d 3 -p cbr -e 1500 -c 0 -i 7 -a 0 -x {2.0 5.0 -1 ------- null}
r -t 0.546 -s 2 -d 1 -p cbr -e 1500 -c 0 -i 27 -a 0 -x {2.0 5.0 22 ------- null}
+ -t 0.546 -s 1 -d 3 -p cbr -e 1500 -c 0 -i 27 -a 0 -x {2.0 5.0 22 ------- null}
- -t 0.548 -s 2 -d 1 -p cbr -e 1500 -c 0 -i 29 -a 0 -x {2.0 5.0 24 ------- null}
h -t 0.548 -s 2 -d 1 -p cbr -e 1500 -c 0 -i 29 -a 0 -x {2.0 5.0 -1 ------- null}
r -t 0.5536 -s 1 -d 3 -p tcp -e 1540 -c 0 -i 12 -a 0 -x {0.0 4.0 1 ------- null}
+ -t 0.5536 -s 3 -d 4 -p tcp -e 1540 -c 0 -i 12 -a 0 -x {0.0 4.0 1 ------- null}
- -t 0.5536 -s 3 -d 4 -p tcp -e 1540 -c 0 -i 12 -a 0 -x {0.0 4.0 1 ------- null}
h -t 0.5536 -s 3 -d 4 -p tcp -e 1540 -c 0 -i 12 -a 0 -x {0.0 4.0 -1 ------- null}
r -t 0.558 -s 2 -d 1 -p cbr -e 1500 -c 0 -i 28 -a 0 -x {2.0 5.0 23 ------- null}
+ -t 0.558 -s 1 -d 3 -p cbr -e 1500 -c 0 -i 28 -a 0 -x {2.0 5.0 23 ------- null}
d -t 0.558 -s 1 -d 3 -p cbr -e 1500 -c 0 -i 28 -a 0 -x {2.0 5.0 23 ------- null}
- -t 0.56 -s 2 -d 1 -p cbr -e 1500 -c 0 -i 30 -a 0 -x {2.0 5.0 25 ------- null}
h -t 0.56 -s 2 -d 1 -p cbr -e 1500 -c 0 -i 30 -a 0 -x {2.0 5.0 -1 ------- null}
r -t 0.57 -s 2 -d 1 -p cbr -e 1500 -c 0 -i 29 -a 0 -x {2.0 5.0 24 ------- null}
+ -t 0.57 -s 1 -d 3 -p cbr -e 1500 -c 0 -i 29 -a 0 -x {2.0 5.0 24 ------- null}
d -t 0.57 -s 1 -d 3 -p cbr -e 1500 -c 0 -i 29 -a 0 -x {2.0 5.0 24 ------- null}
- -t 0.572 -s 2 -d 1 -p cbr -e 1500 -c 0 -i 31 -a 0 -x {2.0 5.0 26 ------- null}
h -t 0.572 -s 2 -d 1 -p cbr -e 1500 -c 0 -i 31 -a 0 -x {2.0 5.0 -1 ------- null}
r -t 0.57592 -s 3 -d 4 -p tcp -e 1540 -c 0 -i 12 -a 0 -x {0.0 4.0 1 ------- null}
+ -t 0.57592 -s 4 -d 3 -p ack -e 40 -c 0 -i 35 -a 0 -x {4.0 0.0 1 ------- null}
- -t 0.57592 -s 4 -d 3 -p ack -e 40 -c 0 -i 35 -a 0 -x {4.0 0.0 1 ------- null}
h -t 0.57592 -s 4 -d 3 -p ack -e 40 -c 0 -i 35 -a 0 -x {4.0 0.0 -1 ------- null}
r -t 0.582 -s 2 -d 1 -p cbr -e 1500 -c 0 -i 30 -a 0 -x {2.0 5.0 25 ------- null}
+ -t 0.582 -s 1 -d 3 -p cbr -e 1500 -c 0 -i 30 -a 0 -x {2.0 5.0 25 ------- null}
d -t 0.582 -s 1 -d 3 -p cbr -e 1500 -c 0 -i 30 -a 0 -x {2.0 5.0 25 ------- null}
- -t 0.584 -s 2 -d 1 -p cbr -e 1500 -c 0 -i 32 -a 0 -x {2.0 5.0 27 ------- null}
h -t 0.584 -s 2 -d 1 -p cbr -e 1500 -c 0 -i 32 -a 0 -x {2.0 5.0 -1 ------- null}
r -t 0.58624 -s 4 -d 3 -p ack -e 40 -c 0 -i 35 -a 0 -x {4.0 0.0 1 ------- null}
+ -t 0.58624 -s 3 -d 1 -p ack -e 40 -c 0 -i 35 -a 0 -x {4.0 0.0 1 ------- null}
- -t 0.58624 -s 3 -d 1 -p ack -e 40 -c 0 -i 35 -a 0 -x {4.0 0.0 1 ------- null}
h -t 0.58624 -s 3 -d 1 -p ack -e 40 -c 0 -i 35 -a 0 -x {4.0 0.0 -1 ------- null}
r -t 0.594 -s 2 -d 1 -p cbr -e 1500 -c 0 -i 31 -a 0 -x {2.0 5.0 26 ------- null}
+ -t 0.594 -s 1 -d 3 -p cbr -e 1500 -c 0 -i 31 -a 0 -x {2.0 5.0 26 ------- null}
d -t 0.594 -s 1 -d 3 -p cbr -e 1500 -c 0 -i 31 -a 0 -x {2.0 5.0 26 ------- null}
- -t 0.596 -s 2 -d 1 -p cbr -e 1500 -c 0 -i 33 -a 0 -x {2.0 5.0 28 ------- null}
h -t 0.596 -s 2 -d 1 -p cbr -e 1500 -c 0 -i 33 -a 0 -x {2.0 5.0 -1 ------- null}
r -t 0.59784 -s 3 -d 1 -p ack -e 40 -c 0 -i 35 -a 0 -x {4.0 0.0 1 ------- null}
+ -t 0.59784 -s 1 -d 0 -p ack -e 40 -c 0 -i 35 -a 0 -x {4.0 0.0 1 ------- null}
- -t 0.59784 -s 1 -d 0 -p ack -e 40 -c 0 -i 35 -a 0 -x {4.0 0.0 1 ------- null}
h -t 0.59784 -s 1 -d 0 -p ack -e 40 -c 0 -i 35 -a 0 -x {4.0 0.0 -1 ------- null}
- -t 0.6036 -s 1 -d 3 -p tcp -e 1540 -c 0 -i 13 -a 0 -x {0.0 4.0 2 ------- null}
h -t 0.6036 -s 1 -d 3 -p tcp -e 1540 -c 0 -i 13 -a 0 -x {0.0 4.0 -1 ------- null}
r -t 0.606 -s 2 -d 1 -p cbr -e 1500 -c 0 -i 32 -a 0 -x {2.0 5.0 27 ------- null}
+ -t 0.606 -s 1 -d 3 -p cbr -e 1500 -c 0 -i 32 -a 0 -x {2.0 5.0 27 ------- null}
- -t 0.608 -s 2 -d 1 -p cbr -e 1500 -c 0 -i 34 -a 0 -x {2.0 5.0 29 ------- null}
h -t 0.608 -s 2 -d 1 -p cbr -e 1500 -c 0 -i 34 -a 0 -x {2.0 5.0 -1 ------- null}
r -t 0.60816 -s 1 -d 0 -p ack -e 40 -c 0 -i 35 -a 0 -x {4.0 0.0 1 ------- null}
+ -t 0.60816 -s 0 -d 1 -p tcp -e 1540 -c 0 -i 36 -a 0 -x {0.0 4.0 2 ------- null}
- -t 0.60816 -s 0 -d 1 -p tcp -e 1540 -c 0 -i 36 -a 0 -x {0.0 4.0 2 ------- null}
h -t 0.60816 -s 0 -d 1 -p tcp -e 1540 -c 0 -i 36 -a 0 -x {0.0 4.0 -1 ------- null}
+ -t 0.60816 -s 0 -d 1 -p tcp -e 1540 -c 0 -i 37 -a 0 -x {0.0 4.0 3 ------- null}
r -t 0.6136 -s 1 -d 3 -p cbr -e 1500 -c 0 -i 7 -a 0 -x {2.0 5.0 6 ------- null}
+ -t 0.6136 -s 3 -d 5 -p cbr -e 1500 -c 0 -i 7 -a 0 -x {2.0 5.0 6 ------- null}
- -t 0.6136 -s 3 -d 5 -p cbr -e 1500 -c 0 -i 7 -a 0 -x {2.0 5.0 6 ------- null}
h -t 0.6136 -s 3 -d 5 -p cbr -e 1500 -c 0 -i 7 -a 0 -x {2.0 5.0 -1 ------- null}
r -t 0.618 -s 2 -d 1 -p cbr -e 1500 -c 0 -i 33 -a 0 -x {2.0 5.0 28 ------- null}
+ -t 0.618 -s 1 -d 3 -p cbr -e 1500 -c 0 -i 33 -a 0 -x {2.0 5.0 28 ------- null}
d -t 0.618 -s 1 -d 3 -p cbr -e 1500 -c 0 -i 33 -a 0 -x {2.0 5.0 28 ------- null}
- -t 0.62048 -s 0 -d 1 -p tcp -e 1540 -c 0 -i 37 -a 0 -x {0.0 4.0 3 ------- null}
h -t 0.62048 -s 0 -d 1 -p tcp -e 1540 -c 0 -i 37 -a 0 -x {0.0 4.0 -1 ------- null}
r -t 0.63 -s 2 -d 1 -p cbr -e 1500 -c 0 -i 34 -a 0 -x {2.0 5.0 29 ------- null}
+ -t 0.63 -s 1 -d 3 -p cbr -e 1500 -c 0 -i 34 -a 0 -x {2.0 5.0 29 ------- null}
d -t 0.63 -s 1 -d 3 -p cbr -e 1500 -c 0 -i 34 -a 0 -x {2.0 5.0 29 ------- null}
r -t 0.63048 -s 0 -d 1 -p tcp -e 1540 -c 0 -i 36 -a 0 -x {0.0 4.0 2 ------- null}
+ -t 0.63048 -s 1 -d 3 -p tcp -e 1540 -c 0 -i 36 -a 0 -x {0.0 4.0 2 ------- null}
d -t 0.63048 -s 1 -d 3 -p tcp -e 1540 -c 0 -i 36 -a 0 -x {0.0 4.0 2 ------- null}
r -t 0.6356 -s 3 -d 5 -p cbr -e 1500 -c 0 -i 7 -a 0 -x {2.0 5.0 6 ------- null}
r -t 0.6428 -s 0 -d 1 -p tcp -e 1540 -c 0 -i 37 -a 0 -x {0.0 4.0 3 ------- null}
+ -t 0.6428 -s 1 -d 3 -p tcp -e 1540 -c 0 -i 37 -a 0 -x {0.0 4.0 3 ------- null}
d -t 0.6428 -s 1 -d 3 -p tcp -e 1540 -c 0 -i 37 -a 0 -x {0.0 4.0 3 ------- null}
- -t 0.6652 -s 1 -d 3 -p cbr -e 1500 -c 0 -i 8 -a 0 -x {2.0 5.0 7 ------- null}
h -t 0.6652 -s 1 -d 3 -p cbr -e 1500 -c 0 -i 8 -a 0 -x {2.0 5.0 -1 ------- null}
r -t 0.6752 -s 1 -d 3 -p tcp -e 1540 -c 0 -i 13 -a 0 -x {0.0 4.0 2 ------- null}
+ -t 0.6752 -s 3 -d 4 -p tcp -e 1540 -c 0 -i 13 -a 0 -x {0.0 4.0 2 ------- null}
- -t 0.6752 -s 3 -d 4 -p tcp -e 1540 -c 0 -i 13 -a 0 -x {0.0 4.0 2 ------- null}
h -t 0.6752 -s 3 -d 4 -p tcp -e 1540 -c 0 -i 13 -a 0 -x {0.0 4.0 -1 ------- null}
r -t 0.69752 -s 3 -d 4 -p tcp -e 1540 -c 0 -i 13 -a 0 -x {0.0 4.0 2 ------- null}
+ -t 0.69752 -s 4 -d 3 -p ack -e 40 -c 0 -i 38 -a 0 -x {4.0 0.0 2 ------- null}
- -t 0.69752 -s 4 -d 3 -p ack -e 40 -c 0 -i 38 -a 0 -x {4.0 0.0 2 ------- null}
h -t 0.69752 -s 4 -d 3 -p ack -e 40 -c 0 -i 38 -a 0 -x {4.0 0.0 -1 ------- null}
+ -t 0.7 -s 2 -d 1 -p cbr -e 1500 -c 0 -i 39 -a 0 -x {2.0 5.0 30 ------- null}
- -t 0.7 -s 2 -d 1 -p cbr -e 1500 -c 0 -i 39 -a 0 -x {2.0 5.0 30 ------- null}
h -t 0.7 -s 2 -d 1 -p cbr -e 1500 -c 0 -i 39 -a 0 -x {2.0 5.0 -1 ------- null}
+ -t 0.7 -s 2 -d 1 -p cbr -e 1500 -c 0 -i 40 -a 0 -x {2.0 5.0 31 ------- null}
+ -t 0.7 -s 2 -d 1 -p cbr -e 1500 -c 0 -i 41 -a 0 -x {2.0 5.0 32 ------- null}
+ -t 0.7 -s 2 -d 1 -p cbr -e 1500 -c 0 -i 42 -a 0 -x {2.0 5.0 33 ------- null}
+ -t 0.7 -s 2 -d 1 -p cbr -e 1500 -c 0 -i 43 -a 0 -x {2.0 5.0 34 ------- null}
+ -t 0.7 -s 2 -d 1 -p cbr -e 1500 -c 0 -i 44 -a 0 -x {2.0 5.0 35 ------- null}
+ -t 0.7 -s 2 -d 1 -p cbr -e 1500 -c 0 -i 45 -a 0 -x {2.0 5.0 36 ------- null}
+ -t 0.7 -s 2 -d 1 -p cbr -e 1500 -c 0 -i 46 -a 0 -x {2.0 5.0 37 ------- null}
+ -t 0.7 -s 2 -d 1 -p cbr -e 1500 -c 0 -i 47 -a 0 -x {2.0 5.0 38 ------- null}
+ -t 0.7 -s 2 -d 1 -p cbr -e 1500 -c 0 -i 48 -a 0 -x {2.0 5.0 39 ------- null}
r -t 0.70784 -s 4 -d 3 -p ack -e 40 -c 0 -i 38 -a 0 -x {4.0 0.0 2 ------- null}
+ -t 0.70784 -s 3 -d 1 -p ack -e 40 -c 0 -i 38 -a 0 -x {4.0 0.0 2 ------- null}
- -t 0.70784 -s 3 -d 1 -p ack -e 40 -c 0 -i 38 -a 0 -x {4.0 0.0 2 ------- null}
h -t 0.70784 -s 3 -d 1 -p ack -e 40 -c 0 -i 38 -a 0 -x {4.0 0.0 -1 ------- null}
- -t 0.712 -s 2 -d 1 -p cbr -e 1500 -c 0 -i 40 -a 0 -x {2.0 5.0 31 ------- null}
h -t 0.712 -s 2 -d 1 -p cbr -e 1500 -c 0 -i 40 -a 0 -x {2.0 5.0 -1 ------- null}
r -t 0.71944 -s 3 -d 1 -p ack -e 40 -c 0 -i 38 -a 0 -x {4.0 0.0 2 ------- null}
+ -t 0.71944 -s 1 -d 0 -p ack -e 40 -c 0 -i 38 -a 0 -x {4.0 0.0 2 ------- null}
- -t 0.71944 -s 1 -d 0 -p ack -e 40 -c 0 -i 38 -a 0 -x {4.0 0.0 2 ------- null}
h -t 0.71944 -s 1 -d 0 -p ack -e 40 -c 0 -i 38 -a 0 -x {4.0 0.0 -1 ------- null}
r -t 0.722 -s 2 -d 1 -p cbr -e 1500 -c 0 -i 39 -a 0 -x {2.0 5.0 30 ------- null}
+ -t 0.722 -s 1 -d 3 -p cbr -e 1500 -c 0 -i 39 -a 0 -x {2.0 5.0 30 ------- null}
- -t 0.724 -s 2 -d 1 -p cbr -e 1500 -c 0 -i 41 -a 0 -x {2.0 5.0 32 ------- null}
h -t 0.724 -s 2 -d 1 -p cbr -e 1500 -c 0 -i 41 -a 0 -x {2.0 5.0 -1 ------- null}
- -t 0.7252 -s 1 -d 3 -p cbr -e 1500 -c 0 -i 9 -a 0 -x {2.0 5.0 8 ------- null}
h -t 0.7252 -s 1 -d 3 -p cbr -e 1500 -c 0 -i 9 -a 0 -x {2.0 5.0 -1 ------- null}
r -t 0.72976 -s 1 -d 0 -p ack -e 40 -c 0 -i 38 -a 0 -x {4.0 0.0 2 ------- null}
+ -t 0.72976 -s 0 -d 1 -p tcp -e 1540 -c 0 -i 49 -a 0 -x {0.0 4.0 4 ------- null}
- -t 0.72976 -s 0 -d 1 -p tcp -e 1540 -c 0 -i 49 -a 0 -x {0.0 4.0 4 ------- null}
h -t 0.72976 -s 0 -d 1 -p tcp -e 1540 -c 0 -i 49 -a 0 -x {0.0 4.0 -1 ------- null}
r -t 0.734 -s 2 -d 1 -p cbr -e 1500 -c 0 -i 40 -a 0 -x {2.0 5.0 31 ------- null}
+ -t 0.734 -s 1 -d 3 -p cbr -e 1500 -c 0 -i 40 -a 0 -x {2.0 5.0 31 ------- null}
r -t 0.7352 -s 1 -d 3 -p cbr -e 1500 -c 0 -i 8 -a 0 -x {2.0 5.0 7 ------- null}
+ -t 0.7352 -s 3 -d 5 -p cbr -e 1500 -c 0 -i 8 -a 0 -x {2.0 5.0 7 ------- null}
- -t 0.7352 -s 3 -d 5 -p cbr -e 1500 -c 0 -i 8 -a 0 -x {2.0 5.0 7 ------- null}
h -t 0.7352 -s 3 -d 5 -p cbr -e 1500 -c 0 -i 8 -a 0 -x {2.0 5.0 -1 ------- null}
- -t 0.736 -s 2 -d 1 -p cbr -e 1500 -c 0 -i 42 -a 0 -x {2.0 5.0 33 ------- null}
h -t 0.736 -s 2 -d 1 -p cbr -e 1500 -c 0 -i 42 -a 0 -x {2.0 5.0 -1 ------- null}
r -t 0.746 -s 2 -d 1 -p cbr -e 1500 -c 0 -i 41 -a 0 -x {2.0 5.0 32 ------- null}
+ -t 0.746 -s 1 -d 3 -p cbr -e 1500 -c 0 -i 41 -a 0 -x {2.0 5.0 32 ------- null}
d -t 0.746 -s 1 -d 3 -p cbr -e 1500 -c 0 -i 41 -a 0 -x {2.0 5.0 32 ------- null}
- -t 0.748 -s 2 -d 1 -p cbr -e 1500 -c 0 -i 43 -a 0 -x {2.0 5.0 34 ------- null}
h -t 0.748 -s 2 -d 1 -p cbr -e 1500 -c 0 -i 43 -a 0 -x {2.0 5.0 -1 ------- null}
r -t 0.75208 -s 0 -d 1 -p tcp -e 1540 -c 0 -i 49 -a 0 -x {0.0 4.0 4 ------- null}
+ -t 0.75208 -s 1 -d 3 -p tcp -e 1540 -c 0 -i 49 -a 0 -x {0.0 4.0 4 ------- null}
d -t 0.75208 -s 1 -d 3 -p tcp -e 1540 -c 0 -i 49 -a 0 -x {0.0 4.0 4 ------- null}
r -t 0.7572 -s 3 -d 5 -p cbr -e 1500 -c 0 -i 8 -a 0 -x {2.0 5.0 7 ------- null}
r -t 0.758 -s 2 -d 1 -p cbr -e 1500 -c 0 -i 42 -a 0 -x {2.0 5.0 33 ------- null}
+ -t 0.758 -s 1 -d 3 -p cbr -e 1500 -c 0 -i 42 -a 0 -x {2.0 5.0 33 ------- null}
d -t 0.758 -s 1 -d 3 -p cbr -e 1500 -c 0 -i 42 -a 0 -x {2.0 5.0 33 ------- null}
- -t 0.76 -s 2 -d 1 -p cbr -e 1500 -c 0 -i 44 -a 0 -x {2.0 5.0 35 ------- null}
h -t 0.76 -s 2 -d 1 -p cbr -e 1500 -c 0 -i 44 -a 0 -x {2.0 5.0 -1 ------- null}
r -t 0.77 -s 2 -d 1 -p cbr -e 1500 -c 0 -i 43 -a 0 -x {2.0 5.0 34 ------- null}
+ -t 0.77 -s 1 -d 3 -p cbr -e 1500 -c 0 -i 43 -a 0 -x {2.0 5.0 34 ------- null}
d -t 0.77 -s 1 -d 3 -p cbr -e 1500 -c 0 -i 43 -a 0 -x {2.0 5.0 34 ------- null}
- -t 0.772 -s 2 -d 1 -p cbr -e 1500 -c 0 -i 45 -a 0 -x {2.0 5.0 36 ------- null}
h -t 0.772 -s 2 -d 1 -p cbr -e 1500 -c 0 -i 45 -a 0 -x {2.0 5.0 -1 ------- null}
r -t 0.782 -s 2 -d 1 -p cbr -e 1500 -c 0 -i 44 -a 0 -x {2.0 5.0 35 ------- null}
+ -t 0.782 -s 1 -d 3 -p cbr -e 1500 -c 0 -i 44 -a 0 -x {2.0 5.0 35 ------- null}
d -t 0.782 -s 1 -d 3 -p cbr -e 1500 -c 0 -i 44 -a 0 -x {2.0 5.0 35 ------- null}
- -t 0.784 -s 2 -d 1 -p cbr -e 1500 -c 0 -i 46 -a 0 -x {2.0 5.0 37 ------- null}
h -t 0.784 -s 2 -d 1 -p cbr -e 1500 -c 0 -i 46 -a 0 -x {2.0 5.0 -1 ------- null}
- -t 0.7852 -s 1 -d 3 -p cbr -e 1500 -c 0 -i 14 -a 0 -x {2.0 5.0 10 ------- null}
h -t 0.7852 -s 1 -d 3 -p cbr -e 1500 -c 0 -i 14 -a 0 -x {2.0 5.0 -1 ------- null}
r -t 0.794 -s 2 -d 1 -p cbr -e 1500 -c 0 -i 45 -a 0 -x {2.0 5.0 36 ------- null}
+ -t 0.794 -s 1 -d 3 -p cbr -e 1500 -c 0 -i 45 -a 0 -x {2.0 5.0 36 ------- null}
r -t 0.7952 -s 1 -d 3 -p cbr -e 1500 -c 0 -i 9 -a 0 -x {2.0 5.0 8 ------- null}