V -t * -v 1.0a5 -a 0
A -t * -n 1 -p 0 -o 0x7fffffff -c 30 -a 1
A -t * -h 1 -m 1073741823 -s 0
n -t * -a 0 -s 0 -S UP -v circle -c black -i black
n -t * -a 1 -s 1 -S UP -v circle -c black -i black
n -t * -a 2 -s 2 -S UP -v circle -c black -i black
n -t * -a 3 -s 3 -S UP -v circle -c black -i black
l -t * -s 0 -d 1 -S UP -r 5000000 -D 0.02 -c black -o right
l -t * -s 1 -d 2 -S UP -r 500000 -D 0.10000000000000001 -c black -o right
l -t * -s 2 -d 3 -S UP -r 5000000 -D 0.02 -c black -o right
q -t * -s 2 -d 1 -a 0.5
q -t * -s 1 -d 2 -a 0.5
a -t 0 -s 0 -d 3 -n tcp
v -t 0 -e monitor_agent 0 tcp
+ -t 0.1 -s 0 -d 1 -p tcp -e 40 -c 0 -i 0 -a 0 -x {0.0 3.0 0 ------- null}
- -t 0.1 -s 0 -d 1 -p tcp -e 40 -c 0 -i 0 -a 0 -x {0.0 3.0 0 ------- null}
h -t 0.1 -s 0 -d 1 -p tcp -e 40 -c 0 -i 0 -a 0 -x {0.0 3.0 -1 ------- null}
r -t 0.120064 -s 0 -d 1 -p tcp -e 40 -c 0 -i 0 -a 0 -x {0.0 3.0 0 ------- null}
+ -t 0.120064 -s 1 -d 2 -p tcp -e 40 -c 0 -i 0 -a 0 -x {0.0 3.0 0 ------- null}
- -t 0.120064 -s 1 -d 2 -p tcp -e 40 -c 0 -i 0 -a 0 -x {0.0 3.0 0 ------- null}
h -t 0.120064 -s 1 -d 2 -p tcp -e 40 -c 0 -i 0 -a 0 -x {0.0 3.0 -1 ------- null}
r -t 0.220704 -s 1 -d 2 -p tcp -e 40 -c 0 -i 0 -a 0 -x {0.0 3.0 0 ------- null}
+ -t 0.220704 -s 2 -d 3 -p tcp -e 40 -c 0 -i 0 -a 0 -x {0.0 3.0 0 ------- null}
- -t 0.220704 -s 2 -d 3 -p tcp -e 40 -c 0 -i 0 -a 0 -x {0.0 3.0 0 ------- null}
h -t 0.220704 -s 2 -d 3 -p tcp -e 40 -c 0 -i 0 -a 0 -x {0.0 3.0 -1 ------- null}
r -t 0.240768 -s 2 -d 3 -p tcp -e 40 -c 0 -i 0 -a 0 -x {0.0 3.0 0 ------- null}
+ -t 0.240768 -s 3 -d 2 -p ack -e 40 -c 0 -i 1 -a 0 -x {3.0 0.0 0 ------- null}
- -t 0.240768 -s 3 -d 2 -p ack -e 40 -c 0 -i 1 -a 0 -x {3.0 0.0 0 ------- null}
h -t 0.240768 -s 3 -d 2 -p ack -e 40 -c 0 -i 1 -a 0 -x {3.0 0.0 -1 ------- null}
r -t 0.260832 -s 3 -d 2 -p ack -e 40 -c 0 -i 1 -a 0 -x {3.0 0.0 0 ------- null}
+ -t 0.260832 -s 2 -d 1 -p ack -e 40 -c 0 -i 1 -a 0 -x {3.0 0.0 0 ------- null}
- -t 0.260832 -s 2 -d 1 -p ack -e 40 -c 0 -i 1 -a 0 -x {3.0 0.0 0 ------- null}
h -t 0.260832 -s 2 -d 1 -p ack -e 40 -c 0 -i 1 -a 0 -x {3.0 0.0 -1 ------- null}
r -t 0.361472 -s 2 -d 1 -p ack -e 40 -c 0 -i 1 -a 0 -x {3.0 0.0 0 ------- null}
+ -t 0.361472 -s 1 -d 0 -p ack -e 40 -c 0 -i 1 -a 0 -x {3.0 0.0 0 ------- null}
- -t 0.361472 -s 1 -d 0 -p ack -e 40 -c 0 -i 1 -a 0 -x {3.0 0.0 0 ------- null}
h -t 0.361472 -s 1 -d 0 -p ack -e 40 -c 0 -i 1 -a 0 -x {3.0 0.0 -1 ------- null}
r -t 0.381536 -s 1 -d 0 -p ack -e 40 -c 0 -i 1 -a 0 -x {3.0 0.0 0 ------- null}
f -t 0.381536 -s 0 -d 3 -n cwnd_ -a tcp -v 2 -T v
+ -t 0.381536 -s 0 -d 1 -p tcp -e 1540 -c 0 -i 2 -a 0 -x {0.0 3.0 1 ------- null}
- -t 0.381536 -s 0 -d 1 -p tcp -e 1540 -c 0 -i 2 -a 0 -x {0.0 3.0 1 ------- null}
h -t 0.381536 -s 0 -d 1 -p tcp -e 1540 -c 0 -i 2 -a 0 -x {0.0 3.0 -1 ------- null}
+ -t 0.381536 -s 0 -d 1 -p tcp -e 1540 -c 0 -i 3 -a 0 -x {0.0 3.0 2 ------- null}
- -t 0.384 -s 0 -d 1 -p tcp -e 1540 -c 0 -i 3 -a 0 -x {0.0 3.0 2 ------- null}
h -t 0.384 -s 0 -d 1 -p tcp -e 1540 -c 0 -i 3 -a 0 -x {0.0 3.0 -1 ------- null}
r -t 0.404 -s 0 -d 1 -p tcp -e 1540 -c 0 -i 2 -a 0 -x {0.0 3.0 1 ------- null}
+ -t 0.404 -s 1 -d 2 -p tcp -e 1540 -c 0 -i 2 -a 0 -x {0.0 3.0 1 ------- null}
- -t 0.404 -s 1 -d 2 -p tcp -e 1540 -c 0 -i 2 -a 0 -x {0.0 3.0 1 ------- null}
h -t 0.404 -s 1 -d 2 -p tcp -e 1540 -c 0 -i 2 -a 0 -x {0.0 3.0 -1 ------- null}
r -t 0.406464 -s 0 -d 1 -p tcp -e 1540 -c 0 -i 3 -a 0 -x {0.0 3.0 2 ------- null}
+ -t 0.406464 -s 1 -d 2 -p tcp -e 1540 -c 0 -i 3 -a 0 -x {0.0 3.0 2 ------- null}
- -t 0.42864 -s 1 -d 2 -p tcp -e 1540 -c 0 -i 3 -a 0 -x {0.0 3.0 2 ------- null}
h -t 0.42864 -s 1 -d 2 -p tcp -e 1540 -c 0 -i 3 -a 0 -x {0.0 3.0 -1 ------- null}
r -t 0.52864 -s 1 -d 2 -p tcp -e 1540 -c 0 -i 2 -a 0 -x {0.0 3.0 1 ------- null}
+ -t 0.52864 -s 2 -d 3 -p tcp -e 1540 -c 0 -i 2 -a 0 -x {0.0 3.0 1 ------- null}
- -t 0.52864 -s 2 -d 3 -p tcp -e 1540 -c 0 -i 2 -a 0 -x {0.0 3.0 1 ------- null}
h -t 0.52864 -s 2 -d 3 -p tcp -e 1540 -c 0 -i 2 -a 0 -x {0.0 3.0 -1 ------- null}
r -t 0.551104 -s 2 -d 3 -p tcp -e 1540 -c 0 -i 2 -a 0 -x {0.0 3.0 1 ------- null}
+ -t 0.551104 -s 3 -d 2 -p ack -e 40 -c 0 -i 4 -a 0 -x {3.0 0.0 1 ------- null}
- -t 0.551104 -s 3 -d 2 -p ack -e 40 -c 0 -i 4 -a 0 -x {3.0 0.0 1 ------- null}
h -t 0.551104 -s 3 -d 2 -p ack -e 40 -c 0 -i 4 -a 0 -x {3.0 0.0 -1 ------- null}
r -t 0.55328 -s 1 -d 2 -p tcp -e 1540 -c 0 -i 3 -a 0 -x {0.0 3.0 2 ------- null}
+ -t 0.55328 -s 2 -d 3 -p tcp -e 1540 -c 0 -i 3 -a 0 -x {0.0 3.0 2 ------- null}
- -t 0.55328 -s 2 -d 3 -p tcp -e 1540 -c 0 -i 3 -a 0 -x {0.0 3.0 2 ------- null}
h -t 0.55328 -s 2 -d 3 -p tcp -e 1540 -c 0 -i 3 -a 0 -x {0.0 3.0 -1 ------- null}
r -t 0.571168 -s 3 -d 2 -p ack -e 40 -c 0 -i 4 -a 0 -x {3.0 0.0 1 ------- null}
+ -t 0.571168 -s 2 -d 1 -p ack -e 40 -c 0 -i 4 -a 0 -x {3.0 0.0 1 ------- null}
- -t 0.571168 -s 2 -d 1 -p ack -e 40 -c 0 -i 4 -a 0 -x {3.0 0.0 1 ------- null}
h -t 0.571168 -s 2 -d 1 -p ack -e 40 -c 0 -i 4 -a 0 -x {3.0 0.0 -1 ------- null}
r -t 0.575744 -s 2 -d 3 -p tcp -e 1540 -c 0 -i 3 -a 0 -x {0.0 3.0 2 ------- null}
+ -t 0.575744 -s 3 -d 2 -p ack -e 40 -c 0 -i 5 -a 0 -x {3.0 0.0 2 ------- null}
- -t 0.575744 -s 3 -d 2 -p ack -e 40 -c 0 -i 5 -a 0 -x {3.0 0.0 2 ------- null}
h -t 0.575744 -s 3 -d 2 -p ack -e 40 -c 0 -i 5 -a 0 -x {3.0 0.0 -1 ------- null}
r -t 0.595808 -s 3 -d 2 -p ack -e 40 -c 0 -i 5 -a 0 -x {3.0 0.0 2 ------- null}
+ -t 0.595808 -s 2 -d 1 -p ack -e 40 -c 0 -i 5 -a 0 -x {3.0 0.0 2 ------- null}
- -t 0.595808 -s 2 -d 1 -p ack -e 40 -c 0 -i 5 -a 0 -x {3.0 0.0 2 ------- null}
h -t 0.595808 -s 2 -d 1 -p ack -e 40 -c 0 -i 5 -a 0 -x {3.0 0.0 -1 ------- null}
r -t 0.671808 -s 2 -d 1 -p ack -e 40 -c 0 -i 4 -a 0 -x {3.0 0.0 1 ------- null}
+ -t 0.671808 -s 1 -d 0 -p ack -e 40 -c 0 -i 4 -a 0 -x {3.0 0.0 1 ------- null}
- -t 0.671808 -s 1 -d 0 -p ack -e 40 -c 0 -i 4 -a 0 -x {3.0 0.0 1 ------- null}
h -t 0.671808 -s 1 -d 0 -p ack -e 40 -c 0 -i 4 -a 0 -x {3.0 0.0 -1 ------- null}
r -t 0.691872 -s 1 -d 0 -p ack -e 40 -c 0 -i 4 -a 0 -x {3.0 0.0 1 ------- null}
f -t 0.691872 -s 0 -d 3 -n cwnd_ -a tcp -v 3 -o 2 -T v
+ -t 0.691872 -s 0 -d 1 -p tcp -e 1540 -c 0 -i 6 -a 0 -x {0.0 3.0 3 ------- null}
- -t 0.691872 -s 0 -d 1 -p tcp -e 1540 -c 0 -i 6 -a 0 -x {0.0 3.0 3 ------- null}
h -t 0.691872 -s 0 -d 1 -p tcp -e 1540 -c 0 -i 6 -a 0 -x {0.0 3.0 -1 ------- null}
+ -t 0.691872 -s 0 -d 1 -p tcp -e 1540 -c 0 -i 7 -a 0 -x {0.0 3.0 4 ------- null}
- -t 0.694336 -s 0 -d 1 -p tcp -e 1540 -c 0 -i 7 -a 0 -x {0.0 3.0 4 ------- null}
h -t 0.694336 -s 0 -d 1 -p tcp -e 1540 -c 0 -i 7 -a 0 -x {0.0 3.0 -1 ------- null}
r -t 0.696448 -s 2 -d 1 -p ack -e 40 -c 0 -i 5 -a 0 -x {3.0 0.0 2 ------- null}
+ -t 0.696448 -s 1 -d 0 -p ack -e 40 -c 0 -i 5 -a 0 -x {3.0 0.0 2 ------- null}
- -t 0.696448 -s 1 -d 0 -p ack -e 40 -c 0 -i 5 -a 0 -x {3.0 0.0 2 ------- null}
h -t 0.696448 -s 1 -d 0 -p ack -e 40 -c 0 -i 5 -a 0 -x {3.0 0.0 -1 ------- null}
r -t 0.714336 -s 0 -d 1 -p tcp -e 1540 -c 0 -i 6 -a 0 -x {0.0 3.0 3 ------- null}
+ -t 0.714336 -s 1 -d 2 -p tcp -e 1540 -c 0 -i 6 -a 0 -x {0.0 3.0 3 ------- null}
- -t 0.714336 -s 1 -d 2 -p tcp -e 1540 -c 0 -i 6 -a 0 -x {0.0 3.0 3 ------- null}
h -t 0.714336 -s 1 -d 2 -p tcp -e 1540 -c 0 -i 6 -a 0 -x {0.0 3.0 -1 ------- null}
r -t 0.716512 -s 1 -d 0 -p ack -e 40 -c 0 -i 5 -a 0 -x {3.0 0.0 2 ------- null}
f -t 0.716512 -s 0 -d 3 -n cwnd_ -a tcp -v 4 -o 3 -T v
+ -t 0.716512 -s 0 -d 1 -p tcp -e 1540 -c 0 -i 8 -a 0 -x {0.0 3.0 5 ------- null}
- -t 0.716512 -s 0 -d 1 -p tcp -e 1540 -c 0 -i 8 -a 0 -x {0.0 3.0 5 ------- null}
h -t 0.716512 -s 0 -d 1 -p tcp -e 1540 -c 0 -i 8 -a 0 -x {0.0 3.0 -1 ------- null}
+ -t 0.716512 -s 0 -d 1 -p tcp -e 1540 -c 0 -i 9 -a 0 -x {0.0 3.0 6 ------- null}
r -t 0.7168 -s 0 -d 1 -p tcp -e 1540 -c 0 -i 7 -a 0 -x {0.0 3.0 4 ------- null}
+ -t 0.7168 -s 1 -d 2 -p tcp -e 1540 -c 0 -i 7 -a 0 -x {0.0 3.0 4 ------- null}
- -t 0.718976 -s 0 -d 1 -p tcp -e 1540 -c 0 -i 9 -a 0 -x {0.0 3.0 6 ------- null}
h -t 0.718976 -s 0 -d 1 -p tcp -e 1540 -c 0 -i 9 -a 0 -x {0.0 3.0 -1 ------- null}
- -t 0.738976 -s 1 -d 2 -p tcp -e 1540 -c 0 -i 7 -a 0 -x {0.0 3.0 4 ------- null}
h -t 0.738976 -s 1 -d 2 -p tcp -e 1540 -c 0 -i 7 -a 0 -x {0.0 3.0 -1 ------- null}
r -t 0.738976 -s 0 -d 1 -p tcp -e 1540 -c 0 -i 8 -a 0 -x {0.0 3.0 5 ------- null}
+ -t 0.738976 -s 1 -d 2 -p tcp -e 1540 -c 0 -i 8 -a 0 -x {0.0 3.0 5 ------- null}
r -t 0.74144 -s 0 -d 1 -p tcp -e 1540 -c 0 -i 9 -a 0 -x {0.0 3.0 6 ------- null}
+ -t 0.74144 -s 1 -d 2 -p tcp -e 1540 -c 0 -i 9 -a 0 -x {0.0 3.0 6 ------- null}
- -t 0.763616 -s 1 -d 2 -p tcp -e 1540 -c 0 -i 8 -a 0 -x {0.0 3.0 5 ------- null}
h -t 0.763616 -s 1 -d 2 -p tcp -e 1540 -c 0 -i 8 -a 0 -x {0.0 3.0 -1 ------- null}
- -t 0.788256 -s 1 -d 2 -p tcp -e 1540 -c 0 -i 9 -a 0 -x {0.0 3.0 6 ------- null}
h -t 0.788256 -s 1 -d 2 -p tcp -e 1540 -c 0 -i 9 -a 0 -x {0.0 3.0 -1 ------- null}
r -t 0.838976 -s 1 -d 2 -p tcp -e 1540 -c 0 -i 6 -a 0 -x {0.0 3.0 3 ------- null}
+ -t 0.838976 -s 2 -d 3 -p tcp -e 1540 -c 0 -i 6 -a 0 -x {0.0 3.0 3 ------- null}
- -t 0.838976 -s 2 -d 3 -p tcp -e 1540 -c 0 -i 6 -a 0 -x {0.0 3.0 3 ------- null}
h -t 0.838976 -s 2 -d 3 -p tcp -e 1540 -c 0 -i 6 -a 0 -x {0.0 3.0 -1 ------- null}
r -t 0.86144 -s 2 -d 3 -p tcp -e 1540 -c 0 -i 6 -a 0 -x {0.0 3.0 3 ------- null}
+ -t 0.86144 -s 3 -d 2 -p ack -e 40 -c 0 -i 10 -a 0 -x {3.0 0.0 3 ------- null}
- -t 0.86144 -s 3 -d 2 -p ack -e 40 -c 0 -i 10 -a 0 -x {3.0 0.0 3 ------- null}
h -t 0.86144 -s 3 -d 2 -p ack -e 40 -c 0 -i 10 -a 0 -x {3.0 0.0 -1 ------- null}
r -t 0.863616 -s 1 -d 2 -p tcp -e 1540 -c 0 -i 7 -a 0 -x {0.0 3.0 4 ------- null}
+ -t 0.863616 -s 2 -d 3 -p tcp -e 1540 -c 0 -i 7 -a 0 -x {0.0 3.0 4 ------- null}
- -t 0.863616 -s 2 -d 3 -p tcp -e 1540 -c 0 -i 7 -a 0 -x {0.0 3.0 4 ------- null}
h -t 0.863616 -s 2 -d 3 -p tcp -e 1540 -c 0 -i 7 -a 0 -x {0.0 3.0 -1 ------- null}
r -t 0.881504 -s 3 -d 2 -p ack -e 40 -c 0 -i 10 -a 0 -x {3.0 0.0 3 ------- null}
+ -t 0.881504 -s 2 -d 1 -p ack -e 40 -c 0 -i 10 -a 0 -x {3.0 0.0 3 ------- null}
- -t 0.881504 -s 2 -d 1 -p ack -e 40 -c 0 -i 10 -a 0 -x {3.0 0.0 3 ------- null}
h -t 0.881504 -s 2 -d 1 -p ack -e 40 -c 0 -i 10 -a 0 -x {3.0 0.0 -1 ------- null}
r -t 0.88608 -s 2 -d 3 -p tcp -e 1540 -c 0 -i 7 -a 0 -x {0.0 3.0 4 ------- null}
+ -t 0.88608 -s 3 -d 2 -p ack -e 40 -c 0 -i 11 -a 0 -x {3.0 0.0 4 ------- null}
- -t 0.88608 -s 3 -d 2 -p ack -e 40 -c 0 -i 11 -a 0 -x {3.0 0.0 4 ------- null}
h -t 0.88608 -s 3 -d 2 -p ack -e 40 -c 0 -i 11 -a 0 -x {3.0 0.0 -1 ------- null}
r -t 0.888256 -s 1 -d 2 -p tcp -e 1540 -c 0 -i 8 -a 0 -x {0.0 3.0 5 ------- null}
+ -t 0.888256 -s 2 -d 3 -p tcp -e 1540 -c 0 -i 8 -a 0 -x {0.0 3.0 5 ------- null}
- -t 0.888256 -s 2 -d 3 -p tcp -e 1540 -c 0 -i 8 -a 0 -x {0.0 3.0 5 ------- null}
h -t 0.888256 -s 2 -d 3 -p tcp -e 1540 -c 0 -i 8 -a 0 -x {0.0 3.0 -1 ------- null}
r -t 0.906144 -s 3 -d 2 -p ack -e 40 -c 0 -i 11 -a 0 -x {3.0 0.0 4 ------- null}
+ -t 0.906144 -s 2 -d 1 -p ack -e 40 -c 0 -i 11 -a 0 -x {3.0 0.0 4 ------- null}
- -t 0.906144 -s 2 -d 1 -p ack -e 40 -c 0 -i 11 -a 0 -x {3.0 0.0 4 ------- null}
h -t 0.906144 -s 2 -d 1 -p ack -e 40 -c 0 -i 11 -a 0 -x {3.0 0.0 -1 ------- null}
r -t 0.91072 -s 2 -d 3 -p tcp -e 1540 -c 0 -i 8 -a 0 -x {0.0 3.0 5 ------- null}
+ -t 0.91072 -s 3 -d 2 -p ack -e 40 -c 0 -i 12 -a 0 -x {3.0 0.0 5 ------- null}
- -t 0.91072 -s 3 -d 2 -p ack -e 40 -c 0 -i 12 -a 0 -x {3.0 0.0 5 ------- null}
h -t 0.91072 -s 3 -d 2 -p ack -e 40 -c 0 -i 12 -a 0 -x {3.0 0.0 -1 ------- null}
r -t 0.912896 -s 1 -d 2 -p tcp -e 1540 -c 0 -i 9 -a 0 -x {0.0 3.0 6 ------- null}
+ -t 0.912896 -s 2 -d 3 -p tcp -e 1540 -c 0 -i 9 -a 0 -x {0.0 3.0 6 ------- null}
- -t 0.912896 -s 2 -d 3 -p tcp -e 1540 -c 0 -i 9 -a 0 -x {0.0 3.0 6 ------- null}
h -t 0.912896 -s 2 -d 3 -p tcp -e 1540 -c 0 -i 9 -a 0 -x {0.0 3.0 -1 ------- null}
r -t 0.930784 -s 3 -d 2 -p ack -e 40 -c 0 -i 12 -a 0 -x {3.0 0.0 5 ------- null}
+ -t 0.930784 -s 2 -d 1 -p ack -e 40 -c 0 -i 12 -a 0 -x {3.0 0.0 5 ------- null}
- -t 0.930784 -s 2 -d 1 -p ack -e 40 -c 0 -i 12 -a 0 -x {3.0 0.0 5 ------- null}
h -t 0.930784 -s 2 -d 1 -p ack -e 40 -c 0 -i 12 -a 0 -x {3.0 0.0 -1 ------- null}
r -t 0.93536 -s 2 -d 3 -p tcp -e 1540 -c 0 -i 9 -a 0 -x {0.0 3.0 6 ------- null}
+ -t 0.93536 -s 3 -d 2 -p ack -e 40 -c 0 -i 13 -a 0 -x {3.0 0.0 6 ------- null}
- -t 0.93536 -s 3 -d 2 -p ack -e 40 -c 0 -i 13 -a 0 -x {3.0 0.0 6 ------- null}
h -t 0.93536 -s 3 -d 2 -p ack -e 40 -c 0 -i 13 -a 0 -x {3.0 0.0 -1 ------- null}
r -t 0.955424 -s 3 -d 2 -p ack -e 40 -c 0 -i 13 -a 0 -x {3.0 0.0 6 ------- null}
+ -t 0.955424 -s 2 -d 1 -p ack -e 40 -c 0 -i 13 -a 0 -x {3.0 0.0 6 ------- null}
- -t 0.955424 -s 2 -d 1 -p ack -e 40 -c 0 -i 13 -a 0 -x {3.0 0.0 6 ------- null}
h -t 0.955424 -s 2 -d 1 -p ack -e 40 -c 0 -i 13 -a 0 -x {3.0 0.0 -1 ------- null}
r -t 0.982144 -s 2 -d 1 -p ack -e 40 -c 0 -i 10 -a 0 -x {3.0 0.0 3 ------- null}
+ -t 0.982144 -s 1 -d 0 -p ack -e 40 -c 0 -i 10 -a 0 -x {3.0 0.0 3 ------- null}
- -t 0.982144 -s 1 -d 0 -p ack -e 40 -c 0 -i 10 -a 0 -x {3.0 0.0 3 ------- null}
h -t 0.982144 -s 1 -d 0 -p ack -e 40 -c 0 -i 10 -a 0 -x {3.0 0.0 -1 ------- null}
r -t 1.002208 -s 1 -d 0 -p ack -e 40 -c 0 -i 10 -a 0 -x {3.0 0.0 3 ------- null}
f -t 1.002208 -s 0 -d 3 -n cwnd_ -a tcp -v 5 -o 4 -T v
+ -t 1.002208 -s 0 -d 1 -p tcp -e 1540 -c 0 -i 14 -a 0 -x {0.0 3.0 7 ------- null}
- -t 1.002208 -s 0 -d 1 -p tcp -e 1540 -c 0 -i 14 -a 0 -x {0.0 3.0 7 ------- null}
h -t 1.002208 -s 0 -d 1 -p tcp -e 1540 -c 0 -i 14 -a 0 -x {0.0 3.0 -1 ------- null}
+ -t 1.002208 -s 0 -d 1 -p tcp -e 1540 -c 0 -i 15 -a 0 -x {0.0 3.0 8 ------- null}
- -t 1.004672 -s 0 -d 1 -p tcp -e 1540 -c 0 -i 15 -a 0 -x {0.0 3.0 8 ------- null}
h -t 1.004672 -s 0 -d 1 -p tcp -e 1540 -c 0 -i 15 -a 0 -x {0.0 3.0 -1 ------- null}
r -t 1.006784 -s 2 -d 1 -p ack -e 40 -c 0 -i 11 -a 0 -x {3.0 0.0 4 ------- null}
+ -t 1.006784 -s 1 -d 0 -p ack -e 40 -c 0 -i 11 -a 0 -x {3.0 0.0 4 ------- null}
- -t 1.006784 -s 1 -d 0 -p ack -e 40 -c 0 -i 11 -a 0 -x {3.0 0.0 4 ------- null}
h -t 1.006784 -s 1 -d 0 -p ack -e 40 -c 0 -i 11 -a 0 -x {3.0 0.0 -1 ------- null}
r -t 1.024672 -s 0 -d 1 -p tcp -e 1540 -c 0 -i 14 -a 0 -x {0.0 3.0 7 ------- null}
+ -t 1.024672 -s 1 -d 2 -p tcp -e 1540 -c 0 -i 14 -a 0 -x {0.0 3.0 7 ------- null}
- -t 1.024672 -s 1 -d 2 -p tcp -e 1540 -c 0 -i 14 -a 0 -x {0.0 3.0 7 ------- null}
h -t 1.024672 -s 1 -d 2 -p tcp -e 1540 -c 0 -i 14 -a 0 -x {0.0 3.0 -1 ------- null}
r -t 1.026848 -s 1 -d 0 -p ack -e 40 -c 0 -i 11 -a 0 -x {3.0 0.0 4 ------- null}
f -t 1.026848 -s 0 -d 3 -n cwnd_ -a tcp -v 6 -o 5 -T v
+ -t 1.026848 -s 0 -d 1 -p tcp -e 1540 -c 0 -i 16 -a 0 -x {0.0 3.0 9 ------- null}
- -t 1.026848 -s 0 -d 1 -p tcp -e 1540 -c 0 -i 16 -a 0 -x {0.0 3.0 9 ------- null}
h -t 1.026848 -s 0 -d 1 -p tcp -e 1540 -c 0 -i 16 -a 0 -x {0.0 3.0 -1 ------- null}
+ -t 1.026848 -s 0 -d 1 -p tcp -e 1540 -c 0 -i 17 -a 0 -x {0.0 3.0 10 ------- null}
r -t 1.027136 -s 0 -d 1 -p tcp -e 1540 -c 0 -i 15 -a 0 -x {0.0 3.0 8 ------- null}
+ -t 1.027136 -s 1 -d 2 -p tcp -e 1540 -c 0 -i 15 -a 0 -x {0.0 3.0 8 ------- null}
- -t 1.029312 -s 0 -d 1 -p tcp -e 1540 -c 0 -i 17 -a 0 -x {0.0 3.0 10 ------- null}
h -t 1.029312 -s 0 -d 1 -p tcp -e 1540 -c 0 -i 17 -a 0 -x {0.0 3.0 -1 ------- null}
r -t 1.031424 -s 2 -d 1 -p ack -e 40 -c 0 -i 12 -a 0 -x {3.0 0.0 5 ------- null}
+ -t 1.031424 -s 1 -d 0 -p ack -e 40 -c 0 -i 12 -a 0 -x {3.0 0.0 5 ------- null}
- -t 1.031424 -s 1 -d 0 -p ack -e 40 -c 0 -i 12 -a 0 -x {3.0 0.0 5 ------- null}
h -t 1.031424 -s 1 -d 0 -p ack -e 40 -c 0 -i 12 -a 0 -x {3.0 0.0 -1 ------- null}
- -t 1.049312 -s 1 -d 2 -p tcp -e 1540 -c 0 -i 15 -a 0 -x {0.0 3.0 8 ------- null}
h -t 1.049312 -s 1 -d 2 -p tcp -e 1540 -c 0 -i 15 -a 0 -x {0.0 3.0 -1 ------- null}
r -t 1.049312 -s 0 -d 1 -p tcp -e 1540 -c 0 -i 16 -a 0 -x {0.0 3.0 9 ------- null}
+ -t 1.049312 -s 1 -d 2 -p tcp -e 1540 -c 0 -i 16 -a 0 -x {0.0 3.0 9 ------- null}
r -t 1.051488 -s 1 -d 0 -p ack -e 40 -c 0 -i 12 -a 0 -x {3.0 0.0 5 ------- null}
f -t 1.051488 -s 0 -d 3 -n cwnd_ -a tcp -v 7 -o 6 -T v
+ -t 1.051488 -s 0 -d 1 -p tcp -e 1540 -c 0 -i 18 -a 0 -x {0.0 3.0 11 ------- null}
- -t 1.051488 -s 0 -d 1 -p tcp -e 1540 -c 0 -i 18 -a 0 -x {0.0 3.0 11 ------- null}
h -t 1.051488 -s 0 -d 1 -p tcp -e 1540 -c 0 -i 18 -a 0 -x {0.0 3.0 -1 ------- null}
+ -t 1.051488 -s 0 -d 1 -p tcp -e 1540 -c 0 -i 19 -a 0 -x {0.0 3.0 12 ------- null}
r -t 1.051776 -s 0 -d 1 -p tcp -e 1540 -c 0 -i 17 -a 0 -x {0.0 3.0 10 ------- null}
+ -t 1.051776 -s 1 -d 2 -p tcp -e 1540 -c 0 -i 17 -a 0 -x {0.0 3.0 10 ------- null}
- -t 1.053952 -s 0 -d 1 -p tcp -e 1540 -c 0 -i 19 -a 0 -x {0.0 3.0 12 ------- null}
h -t 1.053952 -s 0 -d 1 -p tcp -e 1540 -c 0 -i 19 -a 0 -x {0.0 3.0 -1 ------- null}
r -t 1.056064 -s 2 -d 1 -p ack -e 40 -c 0 -i 13 -a 0 -x {3.0 0.0 6 ------- null}
+ -t 1.056064 -s 1 -d 0 -p ack -e 40 -c 0 -i 13 -a 0 -x {3.0 0.0 6 ------- null}
- -t 1.056064 -s 1 -d 0 -p ack -e 40 -c 0 -i 13 -a 0 -x {3.0 0.0 6 ------- null}
h -t 1.056064 -s 1 -d 0 -p ack -e 40 -c 0 -i 13 -a 0 -x {3.0 0.0 -1 ------- null}
- -t 1.073952 -s 1 -d 2 -p tcp -e 1540 -c 0 -i 16 -a 0 -x {0.0 3.0 9 ------- null}
h -t 1.073952 -s 1 -d 2 -p tcp -e 1540 -c 0 -i 16 -a 0 -x {0.0 3.0 -1 ------- null}
r -t 1.073952 -s 0 -d 1 -p tcp -e 1540 -c 0 -i 18 -a 0 -x {0.0 3.0 11 ------- null}
+ -t 1.073952 -s 1 -d 2 -p tcp -e 1540 -c 0 -i 18 -a 0 -x {0.0 3.0 11 ------- null}
r -t 1.076128 -s 1 -d 0 -p ack -e 40 -c 0 -i 13 -a 0 -x {3.0 0.0 6 ------- null}
f -t 1.076128 -s 0 -d 3 -n cwnd_ -a tcp -v 8 -o 7 -T v
+ -t 1.076128 -s 0 -d 1 -p tcp -e 1540 -c 0 -i 20 -a 0 -x {0.0 3.0 13 ------- null}
- -t 1.076128 -s 0 -d 1 -p tcp -e 1540 -c 0 -i 20 -a 0 -x {0.0 3.0 13 ------- null}
h -t 1.076128 -s 0 -d 1 -p tcp -e 1540 -c 0 -i 20 -a 0 -x {0.0 3.0 -1 ------- null}
+ -t 1.076128 -s 0 -d 1 -p tcp -e 1540 -c 0 -i 21 -a 0 -x {0.0 3.0 14 ------- null}
r -t 1.076416 -s 0 -d 1 -p tcp -e 1540 -c 0 -i 19 -a 0 -x {0.0 3.0 12 ------- null}
+ -t 1.076416 -s 1 -d 2 -p tcp -e 1540 -c 0 -i 19 -a 0 -x {0.0 3.0 12 ------- null}
- -t 1.078592 -s 0 -d 1 -p tcp -e 1540 -c 0 -i 21 -a 0 -x {0.0 3.0 14 ------- null}
h -t 1.078592 -s 0 -d 1 -p tcp -e 1540 -c 0 -i 21 -a 0 -x {0.0 3.0 -1 ------- null}
- -t 1.098592 -s 1 -d 2 -p tcp -e 1540 -c 0 -i 17 -a 0 -x {0.0 3.0 10 ------- null}
h -t 1.098592 -s 1 -d 2 -p tcp -e 1540 -c 0 -i 17 -a 0 -x {0.0 3.0 -1 ------- null}
r -t 1.098592 -s 0 -d 1 -p tcp -e 1540 -c 0 -i 20 -a 0 -x {0.0 3.0 13 ------- null}
+ -t 1.098592 -s 1 -d 2 -p tcp -e 1540 -c 0 -i 20 -a 0 -x {0.0 3.0 13 ------- null}
r -t 1.101056 -s 0 -d 1 -p tcp -e 1540 -c 0 -i 21 -a 0 -x {0.0 3.0 14 ------- null}
+ -t 1.101056 -s 1 -d 2 -p tcp -e 1540 -c 0 -i 21 -a 0 -x {0.0 3.0 14 ------- null}
- -t 1.123232 -s 1 -d 2 -p tcp -e 1540 -c 0 -i 18 -a 0 -x {0.0 3.0 11 ------- null}
h -t 1.123232 -s 1 -d 2 -p tcp -e 1540 -c 0 -i 18 -a 0 -x {0.0 3.0 -1 ------- null}
- -t 1.147872 -s 1 -d 2 -p tcp -e 1540 -c 0 -i 19 -a 0 -x {0.0 3.0 12 ------- null}
h -t 1.147872 -s 1 -d 2 -p tcp -e 1540 -c 0 -i 19 -a 0 -x {0.0 3.0 -1 ------- null}
r -t 1.149312 -s 1 -d 2 -p tcp -e 1540 -c 0 -i 14 -a 0 -x {0.0 3.0 7 ------- null}
+ -t 1.149312 -s 2 -d 3 -p tcp -e 1540 -c 0 -i 14 -a 0 -x {0.0 3.0 7 ------- null}
- -t 1.149312 -s 2 -d 3 -p tcp -e 1540 -c 0 -i 14 -a 0 -x {0.0 3.0 7 ------- null}
h -t 1.149312 -s 2 -d 3 -p tcp -e 1540 -c 0 -i 14 -a 0 -x {0.0 3.0 -1 ------- null}
r -t 1.171776 -s 2 -d 3 -p tcp -e 1540 -c 0 -i 14 -a 0 -x {0.0 3.0 7 ------- null}
+ -t 1.171776 -s 3 -d 2 -p ack -e 40 -c 0 -i 22 -a 0 -x {3.0 0.0 7 ------- null}
- -t 1.171776 -s 3 -d 2 -p ack -e 40 -c 0 -i 22 -a 0 -x {3.0 0.0 7 ------- null}
h -t 1.171776 -s 3 -d 2 -p ack -e 40 -c 0 -i 22 -a 0 -x {3.0 0.0 -1 ------- null}
- -t 1.172512 -s 1 -d 2 -p tcp -e 1540 -c 0 -i 20 -a 0 -x {0.0 3.0 13 ------- null}
h -t 1.172512 -s 1 -d 2 -p tcp -e 1540 -c 0 -i 20 -a 0 -x {0.0 3.0 -1 ------- null}
r -t 1.173952 -s 1 -d 2 -p tcp -e 1540 -c 0 -i 15 -a 0 -x {0.0 3.0 8 ------- null}
+ -t 1.173952 -s 2 -d 3 -p tcp -e 1540 -c 0 -i 15 -a 0 -x {0.0 3.0 8 ------- null}
- -t 1.173952 -s 2 -d 3 -p tcp -e 1540 -c 0 -i 15 -a 0 -x {0.0 3.0 8 ------- null}
h -t 1.173952 -s 2 -d 3 -p tcp -e 1540 -c 0 -i 15 -a 0 -x {0.0 3.0 -1 ------- null}
r -t 1.19184 -s 3 -d 2 -p ack -e 40 -c 0 -i 22 -a 0 -x {3.0 0.0 7 ------- null}
+ -t 1.19184 -s 2 -d 1 -p ack -e 40 -c 0 -i 22 -a 0 -x {3.0 0.0 7 ------- null}
- -t 1.19184 -s 2 -d 1 -p ack -e 40 -c 0 -i 22 -a 0 -x {3.0 0.0 7 ------- null}
h -t 1.19184 -s 2 -d 1 -p ack -e 40 -c 0 -i 22 -a 0 -x {3.0 0.0 -1 ------- null}
r -t 1.196416 -s 2 -d 3 -p tcp -e 1540 -c 0 -i 15 -a 0 -x {0.0 3.0 8 ------- null}
+ -t 1.196416 -s 3 -d 2 -p ack -e 40 -c 0 -i 23 -a 0 -x {3.0 0.0 8 ------- null}
- -t 1.196416 -s 3 -d 2 -p ack -e 40 -c 0 -i 23 -a 0 -x {3.0 0.0 8 ------- null}
h -t 1.196416 -s 3 -d 2 -p ack -e 40 -c 0 -i 23 -a 0 -x {3.0 0.0 -1 ------- null}
- -t 1.197152 -s 1 -d 2 -p tcp -e 1540 -c 0 -i 21 -a 0 -x {0.0 3.0 14 ------- null}
h -t 1.197152 -s 1 -d 2 -p tcp -e 1540 -c 0 -i 21 -a 0 -x {0.0 3.0 -1 ------- null}
r -t 1.198592 -s 1 -d 2 -p tcp -e 1540 -c 0 -i 16 -a 0 -x {0.0 3.0 9 ------- null}
+ -t 1.198592 -s 2 -d 3 -p tcp -e 1540 -c 0 -i 16 -a 0 -x {0.0 3.0 9 ------- null}
- -t 1.198592 -s 2 -d 3 -p tcp -e 1540 -c 0 -i 16 -a 0 -x {0.0 3.0 9 ------- null}
h -t 1.198592 -s 2 -d 3 -p tcp -e 1540 -c 0 -i 16 -a 0 -x {0.0 3.0 -1 ------- null}
r -t 1.21648 -s 3 -d 2 -p ack -e 40 -c 0 -i 23 -a 0 -x {3.0 0.0 8 ------- null}
+ -t 1.21648 -s 2 -d 1 -p ack -e 40 -c 0 -i 23 -a 0 -x {3.0 0.0 8 ------- null}
- -t 1.21648 -s 2 -d 1 -p ack -e 40 -c 0 -i 23 -a 0 -x {3.0 0.0 8 ------- null}
h -t 1.21648 -s 2 -d 1 -p ack -e 40 -c 0 -i 23 -a 0 -x {3.0 0.0 -1 ------- null}
r -t 1.221056 -s 2 -d 3 -p tcp -e 1540 -c 0 -i 16 -a 0 -x {0.0 3.0 9 ------- null}
+ -t 1.221056 -s 3 -d 2 -p ack -e 40 -c 0 -i 24 -a 0 -x {3.0 0.0 9 ------- null}
- -t 1.221056 -s 3 -d 2 -p ack -e 40 -c 0 -i 24 -a 0 -x {3.0 0.0 9 ------- null}
h -t 1.221056 -s 3 -d 2 -p ack -e 40 -c 0 -i 24 -a 0 -x {3.0 0.0 -1 ------- null}
r -t 1.223232 -s 1 -d 2 -p tcp -e 1540 -c 0 -i 17 -a 0 -x {0.0 3.0 10 ------- null}
+ -t 1.223232 -s 2 -d 3 -p tcp -e 1540 -c 0 -i 17 -a 0 -x {0.0 3.0 10 ------- null}
- -t 1.223232 -s 2 -d 3 -p tcp -e 1540 -c 0 -i 17 -a 0 -x {0.0 3.0 10 ------- null}
h -t 1.223232 -s 2 -d 3 -p tcp -e 1540 -c 0 -i 17 -a 0 -x {0.0 3.0 -1 ------- null}
r -t 1.24112 -s 3 -d 2 -p ack -e 40 -c 0 -i 24 -a 0 -x {3.0 0.0 9 ------- null}
+ -t 1.24112 -s 2 -d 1 -p ack -e 40 -c 0 -i 24 -a 0 -x {3.0 0.0 9 ------- null}
- -t 1.24112 -s 2 -d 1 -p ack -e 40 -c 0 -i 24 -a 0 -x {3.0 0.0 9 ------- null}
h -t 1.24112 -s 2 -d 1 -p ack -e 40 -c 0 -i 24 -a 0 -x {3.0 0.0 -1 ------- null}
r -t 1.245696 -s 2 -d 3 -p tcp -e 1540 -c 0 -i 17 -a 0 -x {0.0 3.0 10 ------- null}
+ -t 1.245696 -s 3 -d 2 -p ack -e 40 -c 0 -i 25 -a 0 -x {3.0 0.0 10 ------- null}
- -t 1.245696 -s 3 -d 2 -p ack -e 40 -c 0 -i 25 -a 0 -x {3.0 0.0 10 ------- null}
h -t 1.245696 -s 3 -d 2 -p ack -e 40 -c 0 -i 25 -a 0 -x {3.0 0.0 -1 ------- null}
r -t 1.247872 -s 1 -d 2 -p tcp -e 1540 -c 0 -i 18 -a 0 -x {0.0 3.0 11 ------- null}
+ -t 1.247872 -s 2 -d 3 -p tcp -e 1540 -c 0 -i 18 -a 0 -x {0.0 3.0 11 ------- null}
- -t 1.247872 -s 2 -d 3 -p tcp -e 1540 -c 0 -i 18 -a 0 -x {0.0 3.0 11 ------- null}
h -t 1.247872 -s 2 -d 3 -p tcp -e 1540 -c 0 -i 18 -a 0 -x {0.0 3.0 -1 ------- null}
r -t 1.26576 -s 3 -d 2 -p ack -e 40 -c 0 -i 25 -a 0 -x {3.0 0.0 10 ------- null}
+ -t 1.26576 -s 2 -d 1 -p ack -e 40 -c 0 -i 25 -a 0 -x {3.0 0.0 10 ------- null}
- -t 1.26576 -s 2 -d 1 -p ack -e 40 -c 0 -i 25 -a 0 -x {3.0 0.0 10 ------- null}
h -t 1.26576 -s 2 -d 1 -p ack -e 40 -c 0 -i 25 -a 0 -x {3.0 0.0 -1 ------- null}
r -t 1.270336 -s 2 -d 3 -p tcp -e 1540 -c 0 -i 18 -a 0 -x {0.0 3.0 11 ------- null}
+ -t 1.270336 -s 3 -d 2 -p ack -e 40 -c 0 -i 26 -a 0 -x {3.0 0.0 11 ------- null}
- -t 1.270336 -s 3 -d 2 -p ack -e 40 -c 0 -i 26 -a 0 -x {3.0 0.0 11 ------- null}
h -t 1.270336 -s 3 -d 2 -p ack -e 40 -c 0 -i 26 -a 0 -x {3.0 0.0 -1 ------- null}
r -t 1.272512 -s 1 -d 2 -p tcp -e 1540 -c 0 -i 19 -a 0 -x {0.0 3.0 12 ------- null}
+ -t 1.272512 -s 2 -d 3 -p tcp -e 1540 -c 0 -i 19 -a 0 -x {0.0 3.0 12 ------- null}
- -t 1.272512 -s 2 -d 3 -p tcp -e 1540 -c 0 -i 19 -a 0 -x {0.0 3.0 12 ------- null}
h -t 1.272512 -s 2 -d 3 -p tcp -e 1540 -c 0 -i 19 -a 0 -x {0.0 3.0 -1 ------- null}
r -t 1.2904 -s 3 -d 2 -p ack -e 40 -c 0 -i 26 -a 0 -x {3.0 0.0 11 ------- null}
+ -t 1.2904 -s 2 -d 1 -p ack -e 40 -c 0 -i 26 -a 0 -x {3.0 0.0 11 ------- null}
- -t 1.2904 -s 2 -d 1 -p ack -e 40 -c 0 -i 26 -a 0 -x {3.0 0.0 11 ------- null}
h -t 1.2904 -s 2 -d 1 -p ack -e 40 -c 0 -i 26 -a 0 -x {3.0 0.0 -1 ------- null}
r -t 1.29248 -s 2 -d 1 -p ack -e 40 -c 0 -i 22 -a 0 -x {3.0 0.0 7 ------- null}
+ -t 1.29248 -s 1 -d 0 -p ack -e 40 -c 0 -i 22 -a 0 -x {3.0 0.0 7 ------- null}
- -t 1.29248 -s 1 -d 0 -p ack -e 40 -c 0 -i 22 -a 0 -x {3.0 0.0 7 ------- null}
h -t 1.29248 -s 1 -d 0 -p ack -e 40 -c 0 -i 22 -a 0 -x {3.0 0.0 -1 ------- null}
r -t 1.294976 -s 2 -d 3 -p tcp -e 1540 -c 0 -i 19 -a 0 -x {0.0 3.0 12 ------- null}
+ -t 1.294976 -s 3 -d 2 -p ack -e 40 -c 0 -i 27 -a 0 -x {3.0 0.0 12 ------- null}
- -t 1.294976 -s 3 -d 2 -p ack -e 40 -c 0 -i 27 -a 0 -x {3.0 0.0 12 ------- null}
h -t 1.294976 -s 3 -d 2 -p ack -e 40 -c 0 -i 27 -a 0 -x {3.0 0.0 -1 ------- null}
r -t 1.297152 -s 1 -d 2 -p tcp -e 1540 -c 0 -i 20 -a 0 -x {0.0 3.0 13 ------- null}
+ -t 1.297152 -s 2 -d 3 -p tcp -e 1540 -c 0 -i 20 -a 0 -x {0.0 3.0 13 ------- null}
- -t 1.297152 -s 2 -d 3 -p tcp -e 1540 -c 0 -i 20 -a 0 -x {0.0 3.0 13 ------- null}
h -t 1.297152 -s 2 -d 3 -p tcp -e 1540 -c 0 -i 20 -a 0 -x {0.0 3.0 -1 ------- null}
r -t 1.312544 -s 1 -d 0 -p ack -e 40 -c 0 -i 22 -a 0 -x {3.0 0.0 7 ------- null}
f -t 1.312544 -s 0 -d 3 -n cwnd_ -a tcp -v 9 -o 8 -T v
+ -t 1.312544 -s 0 -d 1 -p tcp -e 1540 -c 0 -i 28 -a 0 -x {0.0 3.0 15 ------- null}
- -t 1.312544 -s 0 -d 1 -p tcp -e 1540 -c 0 -i 28 -a 0 -x {0.0 3.0 15 ------- null}
h -t 1.312544 -s 0 -d 1 -p tcp -e 1540 -c 0 -i 28 -a 0 -x {0.0 3.0 -1 ------- null}
+ -t 1.312544 -s 0 -d 1 -p tcp -e 1540 -c 0 -i 29 -a 0 -x {0.0 3.0 16 ------- null}
- -t 1.315008 -s 0 -d 1 -p tcp -e 1540 -c 0 -i 29 -a 0 -x {0.0 3.0 16 ------- null}
h -t 1.315008 -s 0 -d 1 -p tcp -e 1540 -c 0 -i 29 -a 0 -x {0.0 3.0 -1 ------- null}
r -t 1.31504 -s 3 -d 2 -p ack -e 40 -c 0 -i 27 -a 0 -x {3.0 0.0 12 ------- null}
+ -t 1.31504 -s 2 -d 1 -p ack -e 40 -c 0 -i 27 -a 0 -x {3.0 0.0 12 ------- null}
- -t 1.31504 -s 2 -d 1 -p ack -e 40 -c 0 -i 27 -a 0 -x {3.0 0.0 12 ------- null}
h -t 1.31504 -s 2 -d 1 -p ack -e 40 -c 0 -i 27 -a 0 -x {3.0 0.0 -1 ------- null}
r -t 1.31712 -s 2 -d 1 -p ack -e 40 -c 0 -i 23 -a 0 -x {3.0 0.0 8 ------- null}
+ -t 1.31712 -s 1 -d 0 -p ack -e 40 -c 0 -i 23 -a 0 -x {3.0 0.0 8 ------- null}
- -t 1.31712 -s 1 -d 0 -p ack -e 40 -c 0 -i 23 -a 0 -x {3.0 0.0 8 ------- null}
h -t 1.31712 -s 1 -d 0 -p ack -e 40 -c 0 -i 23 -a 0 -x {3.0 0.0 -1 ------- null}
r -t 1.319616 -s 2 -d 3 -p tcp -e 1540 -c 0 -i 20 -a 0 -x {0.0 3.0 13 ------- null}
+ -t 1.319616 -s 3 -d 2 -p ack -e 40 -c 0 -i 30 -a 0 -x {3.0 0.0 13 ------- null}
- -t 1.319616 -s 3 -d 2 -p ack -e 40 -c 0 -i 30 -a 0 -x {3.0 0.0 13 ------- null}
h -t 1.319616 -s 3 -d 2 -p ack -e 40 -c 0 -i 30 -a 0 -x {3.0 0.0 -1 ------- null}
r -t 1.321792 -s 1 -d 2 -p tcp -e 1540 -c 0 -i 21 -a 0 -x {0.0 3.0 14 ------- null}
+ -t 1.321792 -s 2 -d 3 -p tcp -e 1540 -c 0 -i 21 -a 0 -x {0.0 3.0 14 ------- null}
- -t 1.321792 -s 2 -d 3 -p tcp -e 1540 -c 0 -i 21 -a 0 -x {0.0 3.0 14 ------- null}
h -t 1.321792 -s 2 -d 3 -p tcp -e 1540 -c 0 -i 21 -a 0 -x {0.0 3.0 -1 ------- null}
r -t 1.335008 -s 0 -d 1 -p tcp -e 1540 -c 0 -i 28 -a 0 -x {0.0 3.0 15 ------- null}
+ -t 1.335008 -s 1 -d 2 -p tcp -e 1540 -c 0 -i 28 -a 0 -x {0.0 3.0 15 ------- null}
- -t 1.335008 -s 1 -d 2 -p tcp -e 1540 -c 0 -i 28 -a 0 -x {0.0 3.0 15 ------- null}
h -t 1.335008 -s 1 -d 2 -p tcp -e 1540 -c 0 -i 28 -a 0 -x {0.0 3.0 -1 ------- null}
r -t 1.337184 -s 1 -d 0 -p ack -e 40 -c 0 -i 23 -a 0 -x {3.0 0.0 8 ------- null}
f -t 1.337184 -s 0 -d 3 -n cwnd_ -a tcp -v 10 -o 9 -T v
+ -t 1.337184 -s 0 -d 1 -p tcp -e 1540 -c 0 -i 31 -a 0 -x {0.0 3.0 17 ------- null}
- -t 1.337184 -s 0 -d 1 -p tcp -e 1540 -c 0 -i 31 -a 0 -x {0.0 3.0 17 ------- null}
h -t 1.337184 -s 0 -d 1 -p tcp -e 1540 -c 0 -i 31 -a 0 -x {0.0 3.0 -1 ------- null}
+ -t 1.337184 -s 0 -d 1 -p tcp -e 1540 -c 0 -i 32 -a 0 -x {0.0 3.0 18 ------- null}
r -t 1.337472 -s 0 -d 1 -p tcp -e 1540 -c 0 -i 29 -a 0 -x {0.0 3.0 16 ------- null}
+ -t 1.337472 -s 1 -d 2 -p tcp -e 1540 -c 0 -i 29 -a 0 -x {0.0 3.0 16 ------- null}
- -t 1.339648 -s 0 -d 1 -p tcp -e 1540 -c 0 -i 32 -a 0 -x {0.0 3.0 18 ------- null}
h -t 1.339648 -s 0 -d 1 -p tcp -e 1540 -c 0 -i 32 -a 0 -x {0.0 3.0 -1 ------- null}
r -t 1.33968 -s 3 -d 2 -p ack -e 40 -c 0 -i 30 -a 0 -x {3.0 0.0 13 ------- null}
+ -t 1.33968 -s 2 -d 1 -p ack -e 40 -c 0 -i 30 -a 0 -x {3.0 0.0 13 ------- null}
- -t 1.33968 -s 2 -d 1 -p ack -e 40 -c 0 -i 30 -a 0 -x {3.0 0.0 13 ------- null}
h -t 1.33968 -s 2 -d 1 -p ack -e 40 -c 0 -i 30 -a 0 -x {3.0 0.0 -1 ------- null}
r -t 1.34176 -s 2 -d 1 -p ack -e 40 -c 0 -i 24 -a 0 -x {3.0 0.0 9 ------- null}
+ -t 1.34176 -s 1 -d 0 -p ack -e 40 -c 0 -i 24 -a 0 -x {3.0 0.0 9 ------- null}
- -t 1.34176 -s 1 -d 0 -p ack -e 40 -c 0 -i 24 -a 0 -x {3.0 0.0 9 ------- null}
h -t 1.34176 -s 1 -d 0 -p ack -e 40 -c 0 -i 24 -a 0 -x {3.0 0.0 -1 ------- null}
r -t 1.344256 -s 2 -d 3 -p tcp -e 1540 -c 0 -i 21 -a 0 -x {0.0 3.0 14 ------- null}
+ -t 1.344256 -s 3 -d 2 -p ack -e 40 -c 0 -i 33 -a 0 -x {3.0 0.0 14 ------- null}
- -t 1.344256 -s 3 -d 2 -p ack -e 40 -c 0 -i 33 -a 0 -x {3.0 0.0 14 ------- null}
h -t 1.344256 -s 3 -d 2 -p ack -e 40 -c 0 -i 33 -a 0 -x {3.0 0.0 -1 ------- null}
- -t 1.359648 -s 1 -d 2 -p tcp -e 1540 -c 0 -i 29 -a 0 -x {0.0 3.0 16 ------- null}
h -t 1.359648 -s 1 -d 2 -p tcp -e 1540 -c 0 -i 29 -a 0 -x {0.0 3.0 -1 ------- null}
r -t 1.359648 -s 0 -d 1 -p tcp -e 1540 -c 0 -i 31 -a 0 -x {0.0 3.0 17 ------- null}
+ -t 1.359648 -s 1 -d 2 -p tcp -e 1540 -c 0 -i 31 -a 0 -x {0.0 3.0 17 ------- null}