+ 0.1 0 1 tcp 40 ------- 0 0.0 3.0 0 0
- 0.1 0 1 tcp 40 ------- 0 0.0 3.0 0 0
r 0.120064 0 1 tcp 40 ------- 0 0.0 3.0 0 0
+ 0.120064 1 2 tcp 40 ------- 0 0.0 3.0 0 0
- 0.120064 1 2 tcp 40 ------- 0 0.0 3.0 0 0
r 0.220128 1 2 tcp 40 ------- 0 0.0 3.0 0 0
+ 0.220128 2 3 tcp 40 ------- 0 0.0 3.0 0 0
- 0.220128 2 3 tcp 40 ------- 0 0.0 3.0 0 0
r 0.240192 2 3 tcp 40 ------- 0 0.0 3.0 0 0
+ 0.240192 3 2 ack 40 ------- 0 3.0 0.0 0 1
- 0.240192 3 2 ack 40 ------- 0 3.0 0.0 0 1
r 0.260256 3 2 ack 40 ------- 0 3.0 0.0 0 1
+ 0.260256 2 1 ack 40 ------- 0 3.0 0.0 0 1
- 0.260256 2 1 ack 40 ------- 0 3.0 0.0 0 1
r 0.36032 2 1 ack 40 ------- 0 3.0 0.0 0 1
+ 0.36032 1 0 ack 40 ------- 0 3.0 0.0 0 1
- 0.36032 1 0 ack 40 ------- 0 3.0 0.0 0 1
r 0.380384 1 0 ack 40 ------- 0 3.0 0.0 0 1
+ 0.380384 0 1 tcp 1540 ------- 0 0.0 3.0 1 2
- 0.380384 0 1 tcp 1540 ------- 0 0.0 3.0 1 2
+ 0.380384 0 1 tcp 1540 ------- 0 0.0 3.0 2 3
- 0.382848 0 1 tcp 1540 ------- 0 0.0 3.0 2 3
r 0.402848 0 1 tcp 1540 ------- 0 0.0 3.0 1 2
+ 0.402848 1 2 tcp 1540 ------- 0 0.0 3.0 1 2
- 0.402848 1 2 tcp 1540 ------- 0 0.0 3.0 1 2
r 0.405312 0 1 tcp 1540 ------- 0 0.0 3.0 2 3
+ 0.405312 1 2 tcp 1540 ------- 0 0.0 3.0 2 3
- 0.405312 1 2 tcp 1540 ------- 0 0.0 3.0 2 3
r 0.505312 1 2 tcp 1540 ------- 0 0.0 3.0 1 2
+ 0.505312 2 3 tcp 1540 ------- 0 0.0 3.0 1 2
- 0.505312 2 3 tcp 1540 ------- 0 0.0 3.0 1 2
r 0.507776 1 2 tcp 1540 ------- 0 0.0 3.0 2 3
+ 0.507776 2 3 tcp 1540 ------- 0 0.0 3.0 2 3
- 0.507776 2 3 tcp 1540 ------- 0 0.0 3.0 2 3
r 0.527776 2 3 tcp 1540 ------- 0 0.0 3.0 1 2
+ 0.527776 3 2 ack 40 ------- 0 3.0 0.0 1 4
- 0.527776 3 2 ack 40 ------- 0 3.0 0.0 1 4
r 0.53024 2 3 tcp 1540 ------- 0 0.0 3.0 2 3
+ 0.53024 3 2 ack 40 ------- 0 3.0 0.0 2 5
- 0.53024 3 2 ack 40 ------- 0 3.0 0.0 2 5
r 0.54784 3 2 ack 40 ------- 0 3.0 0.0 1 4
+ 0.54784 2 1 ack 40 ------- 0 3.0 0.0 1 4
- 0.54784 2 1 ack 40 ------- 0 3.0 0.0 1 4
r 0.550304 3 2 ack 40 ------- 0 3.0 0.0 2 5
+ 0.550304 2 1 ack 40 ------- 0 3.0 0.0 2 5
- 0.550304 2 1 ack 40 ------- 0 3.0 0.0 2 5
r 0.647904 2 1 ack 40 ------- 0 3.0 0.0 1 4
+ 0.647904 1 0 ack 40 ------- 0 3.0 0.0 1 4
- 0.647904 1 0 ack 40 ------- 0 3.0 0.0 1 4
r 0.650368 2 1 ack 40 ------- 0 3.0 0.0 2 5
+ 0.650368 1 0 ack 40 ------- 0 3.0 0.0 2 5
- 0.650368 1 0 ack 40 ------- 0 3.0 0.0 2 5
r 0.667968 1 0 ack 40 ------- 0 3.0 0.0 1 4
+ 0.667968 0 1 tcp 1540 ------- 0 0.0 3.0 3 6
- 0.667968 0 1 tcp 1540 ------- 0 0.0 3.0 3 6
+ 0.667968 0 1 tcp 1540 ------- 0 0.0 3.0 4 7
r 0.670432 1 0 ack 40 ------- 0 3.0 0.0 2 5
+ 0.670432 0 1 tcp 1540 ------- 0 0.0 3.0 5 8
+ 0.670432 0 1 tcp 1540 ------- 0 0.0 3.0 6 9
- 0.670432 0 1 tcp 1540 ------- 0 0.0 3.0 4 7
- 0.672896 0 1 tcp 1540 ------- 0 0.0 3.0 5 8
- 0.67536 0 1 tcp 1540 ------- 0 0.0 3.0 6 9
r 0.690432 0 1 tcp 1540 ------- 0 0.0 3.0 3 6
+ 0.690432 1 2 tcp 1540 ------- 0 0.0 3.0 3 6
- 0.690432 1 2 tcp 1540 ------- 0 0.0 3.0 3 6
r 0.692896 0 1 tcp 1540 ------- 0 0.0 3.0 4 7
+ 0.692896 1 2 tcp 1540 ------- 0 0.0 3.0 4 7
- 0.692896 1 2 tcp 1540 ------- 0 0.0 3.0 4 7
r 0.69536 0 1 tcp 1540 ------- 0 0.0 3.0 5 8
+ 0.69536 1 2 tcp 1540 ------- 0 0.0 3.0 5 8
- 0.69536 1 2 tcp 1540 ------- 0 0.0 3.0 5 8
r 0.697824 0 1 tcp 1540 ------- 0 0.0 3.0 6 9
+ 0.697824 1 2 tcp 1540 ------- 0 0.0 3.0 6 9
- 0.697824 1 2 tcp 1540 ------- 0 0.0 3.0 6 9
r 0.792896 1 2 tcp 1540 ------- 0 0.0 3.0 3 6
+ 0.792896 2 3 tcp 1540 ------- 0 0.0 3.0 3 6
- 0.792896 2 3 tcp 1540 ------- 0 0.0 3.0 3 6
r 0.79536 1 2 tcp 1540 ------- 0 0.0 3.0 4 7
+ 0.79536 2 3 tcp 1540 ------- 0 0.0 3.0 4 7
- 0.79536 2 3 tcp 1540 ------- 0 0.0 3.0 4 7
r 0.797824 1 2 tcp 1540 ------- 0 0.0 3.0 5 8
+ 0.797824 2 3 tcp 1540 ------- 0 0.0 3.0 5 8
- 0.797824 2 3 tcp 1540 ------- 0 0.0 3.0 5 8
r 0.800288 1 2 tcp 1540 ------- 0 0.0 3.0 6 9
+ 0.800288 2 3 tcp 1540 ------- 0 0.0 3.0 6 9
- 0.800288 2 3 tcp 1540 ------- 0 0.0 3.0 6 9
r 0.81536 2 3 tcp 1540 ------- 0 0.0 3.0 3 6
+ 0.81536 3 2 ack 40 ------- 0 3.0 0.0 3 10
- 0.81536 3 2 ack 40 ------- 0 3.0 0.0 3 10
r 0.817824 2 3 tcp 1540 ------- 0 0.0 3.0 4 7
+ 0.817824 3 2 ack 40 ------- 0 3.0 0.0 4 11
- 0.817824 3 2 ack 40 ------- 0 3.0 0.0 4 11
r 0.820288 2 3 tcp 1540 ------- 0 0.0 3.0 5 8
+ 0.820288 3 2 ack 40 ------- 0 3.0 0.0 5 12
- 0.820288 3 2 ack 40 ------- 0 3.0 0.0 5 12
r 0.822752 2 3 tcp 1540 ------- 0 0.0 3.0 6 9
+ 0.822752 3 2 ack 40 ------- 0 3.0 0.0 6 13
- 0.822752 3 2 ack 40 ------- 0 3.0 0.0 6 13
r 0.835424 3 2 ack 40 ------- 0 3.0 0.0 3 10
+ 0.835424 2 1 ack 40 ------- 0 3.0 0.0 3 10
- 0.835424 2 1 ack 40 ------- 0 3.0 0.0 3 10
r 0.837888 3 2 ack 40 ------- 0 3.0 0.0 4 11
+ 0.837888 2 1 ack 40 ------- 0 3.0 0.0 4 11
- 0.837888 2 1 ack 40 ------- 0 3.0 0.0 4 11
r 0.840352 3 2 ack 40 ------- 0 3.0 0.0 5 12
+ 0.840352 2 1 ack 40 ------- 0 3.0 0.0 5 12
- 0.840352 2 1 ack 40 ------- 0 3.0 0.0 5 12
r 0.842816 3 2 ack 40 ------- 0 3.0 0.0 6 13
+ 0.842816 2 1 ack 40 ------- 0 3.0 0.0 6 13
- 0.842816 2 1 ack 40 ------- 0 3.0 0.0 6 13
r 0.935488 2 1 ack 40 ------- 0 3.0 0.0 3 10
+ 0.935488 1 0 ack 40 ------- 0 3.0 0.0 3 10
- 0.935488 1 0 ack 40 ------- 0 3.0 0.0 3 10
r 0.937952 2 1 ack 40 ------- 0 3.0 0.0 4 11
+ 0.937952 1 0 ack 40 ------- 0 3.0 0.0 4 11
- 0.937952 1 0 ack 40 ------- 0 3.0 0.0 4 11
r 0.940416 2 1 ack 40 ------- 0 3.0 0.0 5 12
+ 0.940416 1 0 ack 40 ------- 0 3.0 0.0 5 12
- 0.940416 1 0 ack 40 ------- 0 3.0 0.0 5 12
r 0.94288 2 1 ack 40 ------- 0 3.0 0.0 6 13
+ 0.94288 1 0 ack 40 ------- 0 3.0 0.0 6 13
- 0.94288 1 0 ack 40 ------- 0 3.0 0.0 6 13
r 0.955552 1 0 ack 40 ------- 0 3.0 0.0 3 10
+ 0.955552 0 1 tcp 1540 ------- 0 0.0 3.0 7 14
- 0.955552 0 1 tcp 1540 ------- 0 0.0 3.0 7 14
+ 0.955552 0 1 tcp 1540 ------- 0 0.0 3.0 8 15
r 0.958016 1 0 ack 40 ------- 0 3.0 0.0 4 11
+ 0.958016 0 1 tcp 1540 ------- 0 0.0 3.0 9 16
+ 0.958016 0 1 tcp 1540 ------- 0 0.0 3.0 10 17
- 0.958016 0 1 tcp 1540 ------- 0 0.0 3.0 8 15
r 0.96048 1 0 ack 40 ------- 0 3.0 0.0 5 12
+ 0.96048 0 1 tcp 1540 ------- 0 0.0 3.0 11 18
+ 0.96048 0 1 tcp 1540 ------- 0 0.0 3.0 12 19
- 0.96048 0 1 tcp 1540 ------- 0 0.0 3.0 9 16
r 0.962944 1 0 ack 40 ------- 0 3.0 0.0 6 13
+ 0.962944 0 1 tcp 1540 ------- 0 0.0 3.0 13 20
+ 0.962944 0 1 tcp 1540 ------- 0 0.0 3.0 14 21
- 0.962944 0 1 tcp 1540 ------- 0 0.0 3.0 10 17
- 0.965408 0 1 tcp 1540 ------- 0 0.0 3.0 11 18
- 0.967872 0 1 tcp 1540 ------- 0 0.0 3.0 12 19
- 0.970336 0 1 tcp 1540 ------- 0 0.0 3.0 13 20
- 0.9728 0 1 tcp 1540 ------- 0 0.0 3.0 14 21
r 0.978016 0 1 tcp 1540 ------- 0 0.0 3.0 7 14
+ 0.978016 1 2 tcp 1540 ------- 0 0.0 3.0 7 14
- 0.978016 1 2 tcp 1540 ------- 0 0.0 3.0 7 14
r 0.98048 0 1 tcp 1540 ------- 0 0.0 3.0 8 15
+ 0.98048 1 2 tcp 1540 ------- 0 0.0 3.0 8 15
- 0.98048 1 2 tcp 1540 ------- 0 0.0 3.0 8 15
r 0.982944 0 1 tcp 1540 ------- 0 0.0 3.0 9 16
+ 0.982944 1 2 tcp 1540 ------- 0 0.0 3.0 9 16
- 0.982944 1 2 tcp 1540 ------- 0 0.0 3.0 9 16
r 0.985408 0 1 tcp 1540 ------- 0 0.0 3.0 10 17
+ 0.985408 1 2 tcp 1540 ------- 0 0.0 3.0 10 17
- 0.985408 1 2 tcp 1540 ------- 0 0.0 3.0 10 17
r 0.987872 0 1 tcp 1540 ------- 0 0.0 3.0 11 18
+ 0.987872 1 2 tcp 1540 ------- 0 0.0 3.0 11 18
- 0.987872 1 2 tcp 1540 ------- 0 0.0 3.0 11 18
r 0.990336 0 1 tcp 1540 ------- 0 0.0 3.0 12 19
+ 0.990336 1 2 tcp 1540 ------- 0 0.0 3.0 12 19
- 0.990336 1 2 tcp 1540 ------- 0 0.0 3.0 12 19
r 0.9928 0 1 tcp 1540 ------- 0 0.0 3.0 13 20
+ 0.9928 1 2 tcp 1540 ------- 0 0.0 3.0 13 20
- 0.9928 1 2 tcp 1540 ------- 0 0.0 3.0 13 20
r 0.995264 0 1 tcp 1540 ------- 0 0.0 3.0 14 21
+ 0.995264 1 2 tcp 1540 ------- 0 0.0 3.0 14 21
- 0.995264 1 2 tcp 1540 ------- 0 0.0 3.0 14 21
r 1.08048 1 2 tcp 1540 ------- 0 0.0 3.0 7 14
+ 1.08048 2 3 tcp 1540 ------- 0 0.0 3.0 7 14
- 1.08048 2 3 tcp 1540 ------- 0 0.0 3.0 7 14
r 1.082944 1 2 tcp 1540 ------- 0 0.0 3.0 8 15
+ 1.082944 2 3 tcp 1540 ------- 0 0.0 3.0 8 15
- 1.082944 2 3 tcp 1540 ------- 0 0.0 3.0 8 15
r 1.085408 1 2 tcp 1540 ------- 0 0.0 3.0 9 16
+ 1.085408 2 3 tcp 1540 ------- 0 0.0 3.0 9 16
- 1.085408 2 3 tcp 1540 ------- 0 0.0 3.0 9 16
r 1.087872 1 2 tcp 1540 ------- 0 0.0 3.0 10 17
+ 1.087872 2 3 tcp 1540 ------- 0 0.0 3.0 10 17
- 1.087872 2 3 tcp 1540 ------- 0 0.0 3.0 10 17
r 1.090336 1 2 tcp 1540 ------- 0 0.0 3.0 11 18
+ 1.090336 2 3 tcp 1540 ------- 0 0.0 3.0 11 18
- 1.090336 2 3 tcp 1540 ------- 0 0.0 3.0 11 18
r 1.0928 1 2 tcp 1540 ------- 0 0.0 3.0 12 19
+ 1.0928 2 3 tcp 1540 ------- 0 0.0 3.0 12 19
- 1.0928 2 3 tcp 1540 ------- 0 0.0 3.0 12 19
r 1.095264 1 2 tcp 1540 ------- 0 0.0 3.0 13 20
+ 1.095264 2 3 tcp 1540 ------- 0 0.0 3.0 13 20
- 1.095264 2 3 tcp 1540 ------- 0 0.0 3.0 13 20
r 1.097728 1 2 tcp 1540 ------- 0 0.0 3.0 14 21
+ 1.097728 2 3 tcp 1540 ------- 0 0.0 3.0 14 21
- 1.097728 2 3 tcp 1540 ------- 0 0.0 3.0 14 21
r 1.102944 2 3 tcp 1540 ------- 0 0.0 3.0 7 14
+ 1.102944 3 2 ack 40 ------- 0 3.0 0.0 7 22
- 1.102944 3 2 ack 40 ------- 0 3.0 0.0 7 22
r 1.105408 2 3 tcp 1540 ------- 0 0.0 3.0 8 15
+ 1.105408 3 2 ack 40 ------- 0 3.0 0.0 8 23
- 1.105408 3 2 ack 40 ------- 0 3.0 0.0 8 23
r 1.107872 2 3 tcp 1540 ------- 0 0.0 3.0 9 16
+ 1.107872 3 2 ack 40 ------- 0 3.0 0.0 9 24
- 1.107872 3 2 ack 40 ------- 0 3.0 0.0 9 24
r 1.110336 2 3 tcp 1540 ------- 0 0.0 3.0 10 17
+ 1.110336 3 2 ack 40 ------- 0 3.0 0.0 10 25
- 1.110336 3 2 ack 40 ------- 0 3.0 0.0 10 25
r 1.1128 2 3 tcp 1540 ------- 0 0.0 3.0 11 18
+ 1.1128 3 2 ack 40 ------- 0 3.0 0.0 11 26
- 1.1128 3 2 ack 40 ------- 0 3.0 0.0 11 26
r 1.115264 2 3 tcp 1540 ------- 0 0.0 3.0 12 19
+ 1.115264 3 2 ack 40 ------- 0 3.0 0.0 12 27
- 1.115264 3 2 ack 40 ------- 0 3.0 0.0 12 27
r 1.117728 2 3 tcp 1540 ------- 0 0.0 3.0 13 20
+ 1.117728 3 2 ack 40 ------- 0 3.0 0.0 13 28
- 1.117728 3 2 ack 40 ------- 0 3.0 0.0 13 28
r 1.120192 2 3 tcp 1540 ------- 0 0.0 3.0 14 21
+ 1.120192 3 2 ack 40 ------- 0 3.0 0.0 14 29
- 1.120192 3 2 ack 40 ------- 0 3.0 0.0 14 29
r 1.123008 3 2 ack 40 ------- 0 3.0 0.0 7 22
+ 1.123008 2 1 ack 40 ------- 0 3.0 0.0 7 22
- 1.123008 2 1 ack 40 ------- 0 3.0 0.0 7 22
r 1.125472 3 2 ack 40 ------- 0 3.0 0.0 8 23
+ 1.125472 2 1 ack 40 ------- 0 3.0 0.0 8 23
- 1.125472 2 1 ack 40 ------- 0 3.0 0.0 8 23
r 1.127936 3 2 ack 40 ------- 0 3.0 0.0 9 24
+ 1.127936 2 1 ack 40 ------- 0 3.0 0.0 9 24
- 1.127936 2 1 ack 40 ------- 0 3.0 0.0 9 24
r 1.1304 3 2 ack 40 ------- 0 3.0 0.0 10 25
+ 1.1304 2 1 ack 40 ------- 0 3.0 0.0 10 25
- 1.1304 2 1 ack 40 ------- 0 3.0 0.0 10 25
r 1.132864 3 2 ack 40 ------- 0 3.0 0.0 11 26
+ 1.132864 2 1 ack 40 ------- 0 3.0 0.0 11 26
- 1.132864 2 1 ack 40 ------- 0 3.0 0.0 11 26
r 1.135328 3 2 ack 40 ------- 0 3.0 0.0 12 27
+ 1.135328 2 1 ack 40 ------- 0 3.0 0.0 12 27
- 1.135328 2 1 ack 40 ------- 0 3.0 0.0 12 27
r 1.137792 3 2 ack 40 ------- 0 3.0 0.0 13 28
+ 1.137792 2 1 ack 40 ------- 0 3.0 0.0 13 28
- 1.137792 2 1 ack 40 ------- 0 3.0 0.0 13 28
r 1.140256 3 2 ack 40 ------- 0 3.0 0.0 14 29
+ 1.140256 2 1 ack 40 ------- 0 3.0 0.0 14 29
- 1.140256 2 1 ack 40 ------- 0 3.0 0.0 14 29
r 1.223072 2 1 ack 40 ------- 0 3.0 0.0 7 22
+ 1.223072 1 0 ack 40 ------- 0 3.0 0.0 7 22
- 1.223072 1 0 ack 40 ------- 0 3.0 0.0 7 22
r 1.225536 2 1 ack 40 ------- 0 3.0 0.0 8 23
+ 1.225536 1 0 ack 40 ------- 0 3.0 0.0 8 23
- 1.225536 1 0 ack 40 ------- 0 3.0 0.0 8 23
r 1.228 2 1 ack 40 ------- 0 3.0 0.0 9 24
+ 1.228 1 0 ack 40 ------- 0 3.0 0.0 9 24
- 1.228 1 0 ack 40 ------- 0 3.0 0.0 9 24
r 1.230464 2 1 ack 40 ------- 0 3.0 0.0 10 25
+ 1.230464 1 0 ack 40 ------- 0 3.0 0.0 10 25
- 1.230464 1 0 ack 40 ------- 0 3.0 0.0 10 25
r 1.232928 2 1 ack 40 ------- 0 3.0 0.0 11 26
+ 1.232928 1 0 ack 40 ------- 0 3.0 0.0 11 26
- 1.232928 1 0 ack 40 ------- 0 3.0 0.0 11 26
r 1.235392 2 1 ack 40 ------- 0 3.0 0.0 12 27
+ 1.235392 1 0 ack 40 ------- 0 3.0 0.0 12 27
- 1.235392 1 0 ack 40 ------- 0 3.0 0.0 12 27
r 1.237856 2 1 ack 40 ------- 0 3.0 0.0 13 28
+ 1.237856 1 0 ack 40 ------- 0 3.0 0.0 13 28
- 1.237856 1 0 ack 40 ------- 0 3.0 0.0 13 28
r 1.24032 2 1 ack 40 ------- 0 3.0 0.0 14 29
+ 1.24032 1 0 ack 40 ------- 0 3.0 0.0 14 29
- 1.24032 1 0 ack 40 ------- 0 3.0 0.0 14 29
r 1.243136 1 0 ack 40 ------- 0 3.0 0.0 7 22
+ 1.243136 0 1 tcp 1540 ------- 0 0.0 3.0 15 30
- 1.243136 0 1 tcp 1540 ------- 0 0.0 3.0 15 30
+ 1.243136 0 1 tcp 1540 ------- 0 0.0 3.0 16 31
r 1.2456 1 0 ack 40 ------- 0 3.0 0.0 8 23
+ 1.2456 0 1 tcp 1540 ------- 0 0.0 3.0 17 32
+ 1.2456 0 1 tcp 1540 ------- 0 0.0 3.0 18 33
- 1.2456 0 1 tcp 1540 ------- 0 0.0 3.0 16 31
r 1.248064 1 0 ack 40 ------- 0 3.0 0.0 9 24
+ 1.248064 0 1 tcp 1540 ------- 0 0.0 3.0 19 34
+ 1.248064 0 1 tcp 1540 ------- 0 0.0 3.0 20 35
- 1.248064 0 1 tcp 1540 ------- 0 0.0 3.0 17 32
r 1.250528 1 0 ack 40 ------- 0 3.0 0.0 10 25
+ 1.250528 0 1 tcp 1540 ------- 0 0.0 3.0 21 36
+ 1.250528 0 1 tcp 1540 ------- 0 0.0 3.0 22 37
- 1.250528 0 1 tcp 1540 ------- 0 0.0 3.0 18 33
r 1.252992 1 0 ack 40 ------- 0 3.0 0.0 11 26
+ 1.252992 0 1 tcp 1540 ------- 0 0.0 3.0 23 38
+ 1.252992 0 1 tcp 1540 ------- 0 0.0 3.0 24 39
- 1.252992 0 1 tcp 1540 ------- 0 0.0 3.0 19 34
r 1.255456 1 0 ack 40 ------- 0 3.0 0.0 12 27
+ 1.255456 0 1 tcp 1540 ------- 0 0.0 3.0 25 40
+ 1.255456 0 1 tcp 1540 ------- 0 0.0 3.0 26 41
- 1.255456 0 1 tcp 1540 ------- 0 0.0 3.0 20 35
r 1.25792 1 0 ack 40 ------- 0 3.0 0.0 13 28
+ 1.25792 0 1 tcp 1540 ------- 0 0.0 3.0 27 42
+ 1.25792 0 1 tcp 1540 ------- 0 0.0 3.0 28 43
- 1.25792 0 1 tcp 1540 ------- 0 0.0 3.0 21 36
r 1.260384 1 0 ack 40 ------- 0 3.0 0.0 14 29
+ 1.260384 0 1 tcp 1540 ------- 0 0.0 3.0 29 44
+ 1.260384 0 1 tcp 1540 ------- 0 0.0 3.0 30 45
- 1.260384 0 1 tcp 1540 ------- 0 0.0 3.0 22 37
- 1.262848 0 1 tcp 1540 ------- 0 0.0 3.0 23 38
- 1.265312 0 1 tcp 1540 ------- 0 0.0 3.0 24 39
r 1.2656 0 1 tcp 1540 ------- 0 0.0 3.0 15 30
+ 1.2656 1 2 tcp 1540 ------- 0 0.0 3.0 15 30
- 1.2656 1 2 tcp 1540 ------- 0 0.0 3.0 15 30
- 1.267776 0 1 tcp 1540 ------- 0 0.0 3.0 25 40
r 1.268064 0 1 tcp 1540 ------- 0 0.0 3.0 16 31
+ 1.268064 1 2 tcp 1540 ------- 0 0.0 3.0 16 31
- 1.268064 1 2 tcp 1540 ------- 0 0.0 3.0 16 31
- 1.27024 0 1 tcp 1540 ------- 0 0.0 3.0 26 41
r 1.270528 0 1 tcp 1540 ------- 0 0.0 3.0 17 32
+ 1.270528 1 2 tcp 1540 ------- 0 0.0 3.0 17 32
- 1.270528 1 2 tcp 1540 ------- 0 0.0 3.0 17 32
- 1.272704 0 1 tcp 1540 ------- 0 0.0 3.0 27 42
r 1.272992 0 1 tcp 1540 ------- 0 0.0 3.0 18 33
+ 1.272992 1 2 tcp 1540 ------- 0 0.0 3.0 18 33
- 1.272992 1 2 tcp 1540 ------- 0 0.0 3.0 18 33
- 1.275168 0 1 tcp 1540 ------- 0 0.0 3.0 28 43
r 1.275456 0 1 tcp 1540 ------- 0 0.0 3.0 19 34
+ 1.275456 1 2 tcp 1540 ------- 0 0.0 3.0 19 34
- 1.275456 1 2 tcp 1540 ------- 0 0.0 3.0 19 34
- 1.277632 0 1 tcp 1540 ------- 0 0.0 3.0 29 44
r 1.27792 0 1 tcp 1540 ------- 0 0.0 3.0 20 35
+ 1.27792 1 2 tcp 1540 ------- 0 0.0 3.0 20 35
- 1.27792 1 2 tcp 1540 ------- 0 0.0 3.0 20 35
- 1.280096 0 1 tcp 1540 ------- 0 0.0 3.0 30 45
r 1.280384 0 1 tcp 1540 ------- 0 0.0 3.0 21 36
+ 1.280384 1 2 tcp 1540 ------- 0 0.0 3.0 21 36
- 1.280384 1 2 tcp 1540 ------- 0 0.0 3.0 21 36
r 1.282848 0 1 tcp 1540 ------- 0 0.0 3.0 22 37
+ 1.282848 1 2 tcp 1540 ------- 0 0.0 3.0 22 37
- 1.282848 1 2 tcp 1540 ------- 0 0.0 3.0 22 37
r 1.285312 0 1 tcp 1540 ------- 0 0.0 3.0 23 38
+ 1.285312 1 2 tcp 1540 ------- 0 0.0 3.0 23 38
- 1.285312 1 2 tcp 1540 ------- 0 0.0 3.0 23 38
r 1.287776 0 1 tcp 1540 ------- 0 0.0 3.0 24 39
+ 1.287776 1 2 tcp 1540 ------- 0 0.0 3.0 24 39
- 1.287776 1 2 tcp 1540 ------- 0 0.0 3.0 24 39
r 1.29024 0 1 tcp 1540 ------- 0 0.0 3.0 25 40
+ 1.29024 1 2 tcp 1540 ------- 0 0.0 3.0 25 40
- 1.29024 1 2 tcp 1540 ------- 0 0.0 3.0 25 40
r 1.292704 0 1 tcp 1540 ------- 0 0.0 3.0 26 41
+ 1.292704 1 2 tcp 1540 ------- 0 0.0 3.0 26 41
- 1.292704 1 2 tcp 1540 ------- 0 0.0 3.0 26 41
r 1.295168 0 1 tcp 1540 ------- 0 0.0 3.0 27 42
+ 1.295168 1 2 tcp 1540 ------- 0 0.0 3.0 27 42
- 1.295168 1 2 tcp 1540 ------- 0 0.0 3.0 27 42
r 1.297632 0 1 tcp 1540 ------- 0 0.0 3.0 28 43
+ 1.297632 1 2 tcp 1540 ------- 0 0.0 3.0 28 43
- 1.297632 1 2 tcp 1540 ------- 0 0.0 3.0 28 43
r 1.300096 0 1 tcp 1540 ------- 0 0.0 3.0 29 44
+ 1.300096 1 2 tcp 1540 ------- 0 0.0 3.0 29 44
- 1.300096 1 2 tcp 1540 ------- 0 0.0 3.0 29 44
r 1.30256 0 1 tcp 1540 ------- 0 0.0 3.0 30 45
+ 1.30256 1 2 tcp 1540 ------- 0 0.0 3.0 30 45
- 1.30256 1 2 tcp 1540 ------- 0 0.0 3.0 30 45
r 1.368064 1 2 tcp 1540 ------- 0 0.0 3.0 15 30
+ 1.368064 2 3 tcp 1540 ------- 0 0.0 3.0 15 30
- 1.368064 2 3 tcp 1540 ------- 0 0.0 3.0 15 30
r 1.370528 1 2 tcp 1540 ------- 0 0.0 3.0 16 31
+ 1.370528 2 3 tcp 1540 ------- 0 0.0 3.0 16 31
- 1.370528 2 3 tcp 1540 ------- 0 0.0 3.0 16 31
r 1.372992 1 2 tcp 1540 ------- 0 0.0 3.0 17 32
+ 1.372992 2 3 tcp 1540 ------- 0 0.0 3.0 17 32
- 1.372992 2 3 tcp 1540 ------- 0 0.0 3.0 17 32
r 1.375456 1 2 tcp 1540 ------- 0 0.0 3.0 18 33
+ 1.375456 2 3 tcp 1540 ------- 0 0.0 3.0 18 33
- 1.375456 2 3 tcp 1540 ------- 0 0.0 3.0 18 33
r 1.37792 1 2 tcp 1540 ------- 0 0.0 3.0 19 34
+ 1.37792 2 3 tcp 1540 ------- 0 0.0 3.0 19 34
- 1.37792 2 3 tcp 1540 ------- 0 0.0 3.0 19 34
r 1.380384 1 2 tcp 1540 ------- 0 0.0 3.0 20 35
+ 1.380384 2 3 tcp 1540 ------- 0 0.0 3.0 20 35
- 1.380384 2 3 tcp 1540 ------- 0 0.0 3.0 20 35
r 1.382848 1 2 tcp 1540 ------- 0 0.0 3.0 21 36
+ 1.382848 2 3 tcp 1540 ------- 0 0.0 3.0 21 36
- 1.382848 2 3 tcp 1540 ------- 0 0.0 3.0 21 36
r 1.385312 1 2 tcp 1540 ------- 0 0.0 3.0 22 37
+ 1.385312 2 3 tcp 1540 ------- 0 0.0 3.0 22 37
- 1.385312 2 3 tcp 1540 ------- 0 0.0 3.0 22 37
r 1.387776 1 2 tcp 1540 ------- 0 0.0 3.0 23 38
+ 1.387776 2 3 tcp 1540 ------- 0 0.0 3.0 23 38
- 1.387776 2 3 tcp 1540 ------- 0 0.0 3.0 23 38
r 1.39024 1 2 tcp 1540 ------- 0 0.0 3.0 24 39
+ 1.39024 2 3 tcp 1540 ------- 0 0.0 3.0 24 39
- 1.39024 2 3 tcp 1540 ------- 0 0.0 3.0 24 39
r 1.390528 2 3 tcp 1540 ------- 0 0.0 3.0 15 30
+ 1.390528 3 2 ack 40 ------- 0 3.0 0.0 15 46
- 1.390528 3 2 ack 40 ------- 0 3.0 0.0 15 46
r 1.392704 1 2 tcp 1540 ------- 0 0.0 3.0 25 40
+ 1.392704 2 3 tcp 1540 ------- 0 0.0 3.0 25 40
- 1.392704 2 3 tcp 1540 ------- 0 0.0 3.0 25 40
r 1.392992 2 3 tcp 1540 ------- 0 0.0 3.0 16 31
+ 1.392992 3 2 ack 40 ------- 0 3.0 0.0 16 47
- 1.392992 3 2 ack 40 ------- 0 3.0 0.0 16 47
r 1.395168 1 2 tcp 1540 ------- 0 0.0 3.0 26 41
+ 1.395168 2 3 tcp 1540 ------- 0 0.0 3.0 26 41
- 1.395168 2 3 tcp 1540 ------- 0 0.0 3.0 26 41
r 1.395456 2 3 tcp 1540 ------- 0 0.0 3.0 17 32
+ 1.395456 3 2 ack 40 ------- 0 3.0 0.0 17 48
- 1.395456 3 2 ack 40 ------- 0 3.0 0.0 17 48
r 1.397632 1 2 tcp 1540 ------- 0 0.0 3.0 27 42
+ 1.397632 2 3 tcp 1540 ------- 0 0.0 3.0 27 42
- 1.397632 2 3 tcp 1540 ------- 0 0.0 3.0 27 42
r 1.39792 2 3 tcp 1540 ------- 0 0.0 3.0 18 33
+ 1.39792 3 2 ack 40 ------- 0 3.0 0.0 18 49
- 1.39792 3 2 ack 40 ------- 0 3.0 0.0 18 49
r 1.400096 1 2 tcp 1540 ------- 0 0.0 3.0 28 43
+ 1.400096 2 3 tcp 1540 ------- 0 0.0 3.0 28 43
- 1.400096 2 3 tcp 1540 ------- 0 0.0 3.0 28 43
r 1.400384 2 3 tcp 1540 ------- 0 0.0 3.0 19 34
+ 1.400384 3 2 ack 40 ------- 0 3.0 0.0 19 50
- 1.400384 3 2 ack 40 ------- 0 3.0 0.0 19 50
r 1.40256 1 2 tcp 1540 ------- 0 0.0 3.0 29 44
+ 1.40256 2 3 tcp 1540 ------- 0 0.0 3.0 29 44
- 1.40256 2 3 tcp 1540 ------- 0 0.0 3.0 29 44
r 1.402848 2 3 tcp 1540 ------- 0 0.0 3.0 20 35
+ 1.402848 3 2 ack 40 ------- 0 3.0 0.0 20 51
- 1.402848 3 2 ack 40 ------- 0 3.0 0.0 20 51
r 1.405024 1 2 tcp 1540 ------- 0 0.0 3.0 30 45
+ 1.405024 2 3 tcp 1540 ------- 0 0.0 3.0 30 45
- 1.405024 2 3 tcp 1540 ------- 0 0.0 3.0 30 45
r 1.405312 2 3 tcp 1540 ------- 0 0.0 3.0 21 36
+ 1.405312 3 2 ack 40 ------- 0 3.0 0.0 21 52
- 1.405312 3 2 ack 40 ------- 0 3.0 0.0 21 52
r 1.407776 2 3 tcp 1540 ------- 0 0.0 3.0 22 37
+ 1.407776 3 2 ack 40 ------- 0 3.0 0.0 22 53
- 1.407776 3 2 ack 40 ------- 0 3.0 0.0 22 53
r 1.41024 2 3 tcp 1540 ------- 0 0.0 3.0 23 38
+ 1.41024 3 2 ack 40 ------- 0 3.0 0.0 23 54
- 1.41024 3 2 ack 40 ------- 0 3.0 0.0 23 54
r 1.410592 3 2 ack 40 ------- 0 3.0 0.0 15 46
+ 1.410592 2 1 ack 40 ------- 0 3.0 0.0 15 46
- 1.410592 2 1 ack 40 ------- 0 3.0 0.0 15 46
r 1.412704 2 3 tcp 1540 ------- 0 0.0 3.0 24 39
+ 1.412704 3 2 ack 40 ------- 0 3.0 0.0 24 55
- 1.412704 3 2 ack 40 ------- 0 3.0 0.0 24 55
r 1.413056 3 2 ack 40 ------- 0 3.0 0.0 16 47
+ 1.413056 2 1 ack 40 ------- 0 3.0 0.0 16 47
- 1.413056 2 1 ack 40 ------- 0 3.0 0.0 16 47
r 1.415168 2 3 tcp 1540 ------- 0 0.0 3.0 25 40
+ 1.415168 3 2 ack 40 ------- 0 3.0 0.0 25 56
- 1.415168 3 2 ack 40 ------- 0 3.0 0.0 25 56
r 1.41552 3 2 ack 40 ------- 0 3.0 0.0 17 48
+ 1.41552 2 1 ack 40 ------- 0 3.0 0.0 17 48
- 1.41552 2 1 ack 40 ------- 0 3.0 0.0 17 48
r 1.417632 2 3 tcp 1540 ------- 0 0.0 3.0 26 41
+ 1.417632 3 2 ack 40 ------- 0 3.0 0.0 26 57
- 1.417632 3 2 ack 40 ------- 0 3.0 0.0 26 57
r 1.417984 3 2 ack 40 ------- 0 3.0 0.0 18 49
+ 1.417984 2 1 ack 40 ------- 0 3.0 0.0 18 49
- 1.417984 2 1 ack 40 ------- 0 3.0 0.0 18 49
r 1.420096 2 3 tcp 1540 ------- 0 0.0 3.0 27 42
+ 1.420096 3 2 ack 40 ------- 0 3.0 0.0 27 58
- 1.420096 3 2 ack 40 ------- 0 3.0 0.0 27 58
r 1.420448 3 2 ack 40 ------- 0 3.0 0.0 19 50
+ 1.420448 2 1 ack 40 ------- 0 3.0 0.0 19 50
- 1.420448 2 1 ack 40 ------- 0 3.0 0.0 19 50
r 1.42256 2 3 tcp 1540 ------- 0 0.0 3.0 28 43
+ 1.42256 3 2 ack 40 ------- 0 3.0 0.0 28 59
- 1.42256 3 2 ack 40 ------- 0 3.0 0.0 28 59
r 1.422912 3 2 ack 40 ------- 0 3.0 0.0 20 51
+ 1.422912 2 1 ack 40 ------- 0 3.0 0.0 20 51
- 1.422912 2 1 ack 40 ------- 0 3.0 0.0 20 51
r 1.425024 2 3 tcp 1540 ------- 0 0.0 3.0 29 44
+ 1.425024 3 2 ack 40 ------- 0 3.0 0.0 29 60
- 1.425024 3 2 ack 40 ------- 0 3.0 0.0 29 60
r 1.425376 3 2 ack 40 ------- 0 3.0 0.0 21 52
+ 1.425376 2 1 ack 40 ------- 0 3.0 0.0 21 52
- 1.425376 2 1 ack 40 ------- 0 3.0 0.0 21 52
r 1.427488 2 3 tcp 1540 ------- 0 0.0 3.0 30 45
+ 1.427488 3 2 ack 40 ------- 0 3.0 0.0 30 61
- 1.427488 3 2 ack 40 ------- 0 3.0 0.0 30 61
r 1.42784 3 2 ack 40 ------- 0 3.0 0.0 22 53
+ 1.42784 2 1 ack 40 ------- 0 3.0 0.0 22 53
- 1.42784 2 1 ack 40 ------- 0 3.0 0.0 22 53
r 1.430304 3 2 ack 40 ------- 0 3.0 0.0 23 54
+ 1.430304 2 1 ack 40 ------- 0 3.0 0.0 23 54
- 1.430304 2 1 ack 40 ------- 0 3.0 0.0 23 54
r 1.432768 3 2 ack 40 ------- 0 3.0 0.0 24 55
+ 1.432768 2 1 ack 40 ------- 0 3.0 0.0 24 55
- 1.432768 2 1 ack 40 ------- 0 3.0 0.0 24 55
r 1.435232 3 2 ack 40 ------- 0 3.0 0.0 25 56
+ 1.435232 2 1 ack 40 ------- 0 3.0 0.0 25 56
- 1.435232 2 1 ack 40 ------- 0 3.0 0.0 25 56
r 1.437696 3 2 ack 40 ------- 0 3.0 0.0 26 57
+ 1.437696 2 1 ack 40 ------- 0 3.0 0.0 26 57
- 1.437696 2 1 ack 40 ------- 0 3.0 0.0 26 57
r 1.44016 3 2 ack 40 ------- 0 3.0 0.0 27 58
+ 1.44016 2 1 ack 40 ------- 0 3.0 0.0 27 58
- 1.44016 2 1 ack 40 ------- 0 3.0 0.0 27 58
r 1.442624 3 2 ack 40 ------- 0 3.0 0.0 28 59
+ 1.442624 2 1 ack 40 ------- 0 3.0 0.0 28 59
- 1.442624 2 1 ack 40 ------- 0 3.0 0.0 28 59
r 1.445088 3 2 ack 40 ------- 0 3.0 0.0 29 60
+ 1.445088 2 1 ack 40 ------- 0 3.0 0.0 29 60
- 1.445088 2 1 ack 40 ------- 0 3.0 0.0 29 60
r 1.447552 3 2 ack 40 ------- 0 3.0 0.0 30 61
+ 1.447552 2 1 ack 40 ------- 0 3.0 0.0 30 61
- 1.447552 2 1 ack 40 ------- 0 3.0 0.0 30 61
r 1.510656 2 1 ack 40 ------- 0 3.0 0.0 15 46
+ 1.510656 1 0 ack 40 ------- 0 3.0 0.0 15 46
- 1.510656 1 0 ack 40 ------- 0 3.0 0.0 15 46
r 1.51312 2 1 ack 40 ------- 0 3.0 0.0 16 47
+ 1.51312 1 0 ack 40 ------- 0 3.0 0.0 16 47
- 1.51312 1 0 ack 40 ------- 0 3.0 0.0 16 47
r 1.515584 2 1 ack 40 ------- 0 3.0 0.0 17 48
+ 1.515584 1 0 ack 40 ------- 0 3.0 0.0 17 48
- 1.515584 1 0 ack 40 ------- 0 3.0 0.0 17 48
r 1.518048 2 1 ack 40 ------- 0 3.0 0.0 18 49
+ 1.518048 1 0 ack 40 ------- 0 3.0 0.0 18 49
- 1.518048 1 0 ack 40 ------- 0 3.0 0.0 18 49
r 1.520512 2 1 ack 40 ------- 0 3.0 0.0 19 50
+ 1.520512 1 0 ack 40 ------- 0 3.0 0.0 19 50
- 1.520512 1 0 ack 40 ------- 0 3.0 0.0 19 50
r 1.522976 2 1 ack 40 ------- 0 3.0 0.0 20 51
+ 1.522976 1 0 ack 40 ------- 0 3.0 0.0 20 51
- 1.522976 1 0 ack 40 ------- 0 3.0 0.0 20 51
r 1.52544 2 1 ack 40 ------- 0 3.0 0.0 21 52
+ 1.52544 1 0 ack 40 ------- 0 3.0 0.0 21 52
- 1.52544 1 0 ack 40 ------- 0 3.0 0.0 21 52
r 1.527904 2 1 ack 40 ------- 0 3.0 0.0 22 53
+ 1.527904 1 0 ack 40 ------- 0 3.0 0.0 22 53
- 1.527904 1 0 ack 40 ------- 0 3.0 0.0 22 53
r 1.530368 2 1 ack 40 ------- 0 3.0 0.0 23 54
+ 1.530368 1 0 ack 40 ------- 0 3.0 0.0 23 54
- 1.530368 1 0 ack 40 ------- 0 3.0 0.0 23 54
r 1.53072 1 0 ack 40 ------- 0 3.0 0.0 15 46
+ 1.53072 0 1 tcp 1540 ------- 0 0.0 3.0 31 62
- 1.53072 0 1 tcp 1540 ------- 0 0.0 3.0 31 62
+ 1.53072 0 1 tcp 1540 ------- 0 0.0 3.0 32 63
r 1.532832 2 1 ack 40 ------- 0 3.0 0.0 24 55
+ 1.532832 1 0 ack 40 ------- 0 3.0 0.0 24 55
- 1.532832 1 0 ack 40 ------- 0 3.0 0.0 24 55
r 1.533184 1 0 ack 40 ------- 0 3.0 0.0 16 47
+ 1.533184 0 1 tcp 1540 ------- 0 0.0 3.0 33 64
+ 1.533184 0 1 tcp 1540 ------- 0 0.0 3.0 34 65
- 1.533184 0 1 tcp 1540 ------- 0 0.0 3.0 32 63
r 1.535296 2 1 ack 40 ------- 0 3.0 0.0 25 56
+ 1.535296 1 0 ack 40 ------- 0 3.0 0.0 25 56
- 1.535296 1 0 ack 40 ------- 0 3.0 0.0 25 56
r 1.535648 1 0 ack 40 ------- 0 3.0 0.0 17 48
+ 1.535648 0 1 tcp 1540 ------- 0 0.0 3.0 35 66
+ 1.535648 0 1 tcp 1540 ------- 0 0.0 3.0 36 67
- 1.535648 0 1 tcp 1540 ------- 0 0.0 3.0 33 64
r 1.53776 2 1 ack 40 ------- 0 3.0 0.0 26 57
+ 1.53776 1 0 ack 40 ------- 0 3.0 0.0 26 57
- 1.53776 1 0 ack 40 ------- 0 3.0 0.0 26 57
r 1.538112 1 0 ack 40 ------- 0 3.0 0.0 18 49
+ 1.538112 0 1 tcp 1540 ------- 0 0.0 3.0 37 68
+ 1.538112 0 1 tcp 1540 ------- 0 0.0 3.0 38 69
- 1.538112 0 1 tcp 1540 ------- 0 0.0 3.0 34 65
r 1.540224 2 1 ack 40 ------- 0 3.0 0.0 27 58
+ 1.540224 1 0 ack 40 ------- 0 3.0 0.0 27 58
- 1.540224 1 0 ack 40 ------- 0 3.0 0.0 27 58
r 1.540576 1 0 ack 40 ------- 0 3.0 0.0 19 50
+ 1.540576 0 1 tcp 1540 ------- 0 0.0 3.0 39 70
- 1.540576 0 1 tcp 1540 ------- 0 0.0 3.0 35 66
r 1.542688 2 1 ack 40 ------- 0 3.0 0.0 28 59
+ 1.542688 1 0 ack 40 ------- 0 3.0 0.0 28 59
- 1.542688 1 0 ack 40 ------- 0 3.0 0.0 28 59
r 1.54304 1 0 ack 40 ------- 0 3.0 0.0 20 51
+ 1.54304 0 1 tcp 1540 ------- 0 0.0 3.0 40 71
- 1.54304 0 1 tcp 1540 ------- 0 0.0 3.0 36 67
r 1.545152 2 1 ack 40 ------- 0 3.0 0.0 29 60
+ 1.545152 1 0 ack 40 ------- 0 3.0 0.0 29 60
- 1.545152 1 0 ack 40 ------- 0 3.0 0.0 29 60
r 1.545504 1 0 ack 40 ------- 0 3.0 0.0 21 52
+ 1.545504 0 1 tcp 1540 ------- 0 0.0 3.0 41 72
- 1.545504 0 1 tcp 1540 ------- 0 0.0 3.0 37 68
r 1.547616 2 1 ack 40 ------- 0 3.0 0.0 30 61
+ 1.547616 1 0 ack 40 ------- 0 3.0 0.0 30 61
- 1.547616 1 0 ack 40 ------- 0 3.0 0.0 30 61
r 1.547968 1 0 ack 40 ------- 0 3.0 0.0 22 53
+ 1.547968 0 1 tcp 1540 ------- 0 0.0 3.0 42 73
- 1.547968 0 1 tcp 1540 ------- 0 0.0 3.0 38 69
r 1.550432 1 0 ack 40 ------- 0 3.0 0.0 23 54
+ 1.550432 0 1 tcp 1540 ------- 0 0.0 3.0 43 74
- 1.550432 0 1 tcp 1540 ------- 0 0.0 3.0 39 70
r 1.552896 1 0 ack 40 ------- 0 3.0 0.0 24 55
+ 1.552896 0 1 tcp 1540 ------- 0 0.0 3.0 44 75
- 1.552896 0 1 tcp 1540 ------- 0 0.0 3.0 40 71
r 1.553184 0 1 tcp 1540 ------- 0 0.0 3.0 31 62
+ 1.553184 1 2 tcp 1540 ------- 0 0.0 3.0 31 62
- 1.553184 1 2 tcp 1540 ------- 0 0.0 3.0 31 62
r 1.55536 1 0 ack 40 ------- 0 3.0 0.0 25 56
+ 1.55536 0 1 tcp 1540 ------- 0 0.0 3.0 45 76
- 1.55536 0 1 tcp 1540 ------- 0 0.0 3.0 41 72
r 1.555648 0 1 tcp 1540 ------- 0 0.0 3.0 32 63
+ 1.555648 1 2 tcp 1540 ------- 0 0.0 3.0 32 63
- 1.555648 1 2 tcp 1540 ------- 0 0.0 3.0 32 63
r 1.557824 1 0 ack 40 ------- 0 3.0 0.0 26 57
+ 1.557824 0 1 tcp 1540 ------- 0 0.0 3.0 46 77
- 1.557824 0 1 tcp 1540 ------- 0 0.0 3.0 42 73
r 1.558112 0 1 tcp 1540 ------- 0 0.0 3.0 33 64
+ 1.558112 1 2 tcp 1540 ------- 0 0.0 3.0 33 64
- 1.558112 1 2 tcp 1540 ------- 0 0.0 3.0 33 64
r 1.560288 1 0 ack 40 ------- 0 3.0 0.0 27 58
+ 1.560288 0 1 tcp 1540 ------- 0 0.0 3.0 47 78
- 1.560288 0 1 tcp 1540 ------- 0 0.0 3.0 43 74
r 1.560576 0 1 tcp 1540 ------- 0 0.0 3.0 34 65
+ 1.560576 1 2 tcp 1540 ------- 0 0.0 3.0 34 65
- 1.560576 1 2 tcp 1540 ------- 0 0.0 3.0 34 65
r 1.562752 1 0 ack 40 ------- 0 3.0 0.0 28 59
+ 1.562752 0 1 tcp 1540 ------- 0 0.0 3.0 48 79
- 1.562752 0 1 tcp 1540 ------- 0 0.0 3.0 44 75
r 1.56304 0 1 tcp 1540 ------- 0 0.0 3.0 35 66
+ 1.56304 1 2 tcp 1540 ------- 0 0.0 3.0 35 66
- 1.56304 1 2 tcp 1540 ------- 0 0.0 3.0 35 66
r 1.565216 1 0 ack 40 ------- 0 3.0 0.0 29 60
+ 1.565216 0 1 tcp 1540 ------- 0 0.0 3.0 49 80
- 1.565216 0 1 tcp 1540 ------- 0 0.0 3.0 45 76
r 1.565504 0 1 tcp 1540 ------- 0 0.0 3.0 36 67
+ 1.565504 1 2 tcp 1540 ------- 0 0.0 3.0 36 67
- 1.565504 1 2 tcp 1540 ------- 0 0.0 3.0 36 67
r 1.56768 1 0 ack 40 ------- 0 3.0 0.0 30 61
+ 1.56768 0 1 tcp 1540 ------- 0 0.0 3.0 50 81
- 1.56768 0 1 tcp 1540 ------- 0 0.0 3.0 46 77
r 1.567968 0 1 tcp 1540 ------- 0 0.0 3.0 37 68
+ 1.567968 1 2 tcp 1540 ------- 0 0.0 3.0 37 68
- 1.567968 1 2 tcp 1540 ------- 0 0.0 3.0 37 68
- 1.570144 0 1 tcp 1540 ------- 0 0.0 3.0 47 78
r 1.570432 0 1 tcp 1540 ------- 0 0.0 3.0 38 69
+ 1.570432 1 2 tcp 1540 ------- 0 0.0 3.0 38 69
- 1.570432 1 2 tcp 1540 ------- 0 0.0 3.0 38 69
- 1.572608 0 1 tcp 1540 ------- 0 0.0 3.0 48 79
r 1.572896 0 1 tcp 1540 ------- 0 0.0 3.0 39 70
+ 1.572896 1 2 tcp 1540 ------- 0 0.0 3.0 39 70
- 1.572896 1 2 tcp 1540 ------- 0 0.0 3.0 39 70
- 1.575072 0 1 tcp 1540 ------- 0 0.0 3.0 49 80
r 1.57536 0 1 tcp 1540 ------- 0 0.0 3.0 40 71
+ 1.57536 1 2 tcp 1540 ------- 0 0.0 3.0 40 71
- 1.57536 1 2 tcp 1540 ------- 0 0.0 3.0 40 71
- 1.577536 0 1 tcp 1540 ------- 0 0.0 3.0 50 81
r 1.577824 0 1 tcp 1540 ------- 0 0.0 3.0 41 72
+ 1.577824 1 2 tcp 1540 ------- 0 0.0 3.0 41 72
- 1.577824 1 2 tcp 1540 ------- 0 0.0 3.0 41 72
r 1.580288 0 1 tcp 1540 ------- 0 0.0 3.0 42 73
+ 1.580288 1 2 tcp 1540 ------- 0 0.0 3.0 42 73
- 1.580288 1 2 tcp 1540 ------- 0 0.0 3.0 42 73
r 1.582752 0 1 tcp 1540 ------- 0 0.0 3.0 43 74
+ 1.582752 1 2 tcp 1540 ------- 0 0.0 3.0 43 74
- 1.582752 1 2 tcp 1540 ------- 0 0.0 3.0 43 74
r 1.585216 0 1 tcp 1540 ------- 0 0.0 3.0 44 75
+ 1.585216 1 2 tcp 1540 ------- 0 0.0 3.0 44 75
- 1.585216 1 2 tcp 1540 ------- 0 0.0 3.0 44 75
r 1.58768 0 1 tcp 1540 ------- 0 0.0 3.0 45 76
+ 1.58768 1 2 tcp 1540 ------- 0 0.0 3.0 45 76
- 1.58768 1 2 tcp 1540 ------- 0 0.0 3.0 45 76
r 1.590144 0 1 tcp 1540 ------- 0 0.0 3.0 46 77
+ 1.590144 1 2 tcp 1540 ------- 0 0.0 3.0 46 77
- 1.590144 1 2 tcp 1540 ------- 0 0.0 3.0 46 77