V -t * -v 1.0a5 -a 0
A -t * -n 1 -p 0 -o 0x7fffffff -c 30 -a 1
A -t * -h 1 -m 1073741823 -s 0
n -t * -a 0 -s 0 -S UP -v circle -c black -i black
n -t * -a 1 -s 1 -S UP -v circle -c black -i black
n -t * -a 2 -s 2 -S UP -v circle -c black -i black
n -t * -a 3 -s 3 -S UP -v circle -c black -i black
l -t * -s 0 -d 1 -S UP -r 5000000 -D 0.02 -c black -o right
l -t * -s 1 -d 2 -S UP -r 5000000 -D 0.10000000000000001 -c black -o right
l -t * -s 2 -d 3 -S UP -r 5000000 -D 0.02 -c black -o right
+ -t 0.1 -s 0 -d 1 -p tcp -e 40 -c 0 -i 0 -a 0 -x {0.0 3.0 0 ------- null}
- -t 0.1 -s 0 -d 1 -p tcp -e 40 -c 0 -i 0 -a 0 -x {0.0 3.0 0 ------- null}
h -t 0.1 -s 0 -d 1 -p tcp -e 40 -c 0 -i 0 -a 0 -x {0.0 3.0 -1 ------- null}
r -t 0.120064 -s 0 -d 1 -p tcp -e 40 -c 0 -i 0 -a 0 -x {0.0 3.0 0 ------- null}
+ -t 0.120064 -s 1 -d 2 -p tcp -e 40 -c 0 -i 0 -a 0 -x {0.0 3.0 0 ------- null}
- -t 0.120064 -s 1 -d 2 -p tcp -e 40 -c 0 -i 0 -a 0 -x {0.0 3.0 0 ------- null}
h -t 0.120064 -s 1 -d 2 -p tcp -e 40 -c 0 -i 0 -a 0 -x {0.0 3.0 -1 ------- null}
r -t 0.220128 -s 1 -d 2 -p tcp -e 40 -c 0 -i 0 -a 0 -x {0.0 3.0 0 ------- null}
+ -t 0.220128 -s 2 -d 3 -p tcp -e 40 -c 0 -i 0 -a 0 -x {0.0 3.0 0 ------- null}
- -t 0.220128 -s 2 -d 3 -p tcp -e 40 -c 0 -i 0 -a 0 -x {0.0 3.0 0 ------- null}
h -t 0.220128 -s 2 -d 3 -p tcp -e 40 -c 0 -i 0 -a 0 -x {0.0 3.0 -1 ------- null}
r -t 0.240192 -s 2 -d 3 -p tcp -e 40 -c 0 -i 0 -a 0 -x {0.0 3.0 0 ------- null}
+ -t 0.240192 -s 3 -d 2 -p ack -e 40 -c 0 -i 1 -a 0 -x {3.0 0.0 0 ------- null}
- -t 0.240192 -s 3 -d 2 -p ack -e 40 -c 0 -i 1 -a 0 -x {3.0 0.0 0 ------- null}
h -t 0.240192 -s 3 -d 2 -p ack -e 40 -c 0 -i 1 -a 0 -x {3.0 0.0 -1 ------- null}
r -t 0.260256 -s 3 -d 2 -p ack -e 40 -c 0 -i 1 -a 0 -x {3.0 0.0 0 ------- null}
+ -t 0.260256 -s 2 -d 1 -p ack -e 40 -c 0 -i 1 -a 0 -x {3.0 0.0 0 ------- null}
- -t 0.260256 -s 2 -d 1 -p ack -e 40 -c 0 -i 1 -a 0 -x {3.0 0.0 0 ------- null}
h -t 0.260256 -s 2 -d 1 -p ack -e 40 -c 0 -i 1 -a 0 -x {3.0 0.0 -1 ------- null}
r -t 0.36032 -s 2 -d 1 -p ack -e 40 -c 0 -i 1 -a 0 -x {3.0 0.0 0 ------- null}
+ -t 0.36032 -s 1 -d 0 -p ack -e 40 -c 0 -i 1 -a 0 -x {3.0 0.0 0 ------- null}
- -t 0.36032 -s 1 -d 0 -p ack -e 40 -c 0 -i 1 -a 0 -x {3.0 0.0 0 ------- null}
h -t 0.36032 -s 1 -d 0 -p ack -e 40 -c 0 -i 1 -a 0 -x {3.0 0.0 -1 ------- null}
r -t 0.380384 -s 1 -d 0 -p ack -e 40 -c 0 -i 1 -a 0 -x {3.0 0.0 0 ------- null}
+ -t 0.380384 -s 0 -d 1 -p tcp -e 1540 -c 0 -i 2 -a 0 -x {0.0 3.0 1 ------- null}
- -t 0.380384 -s 0 -d 1 -p tcp -e 1540 -c 0 -i 2 -a 0 -x {0.0 3.0 1 ------- null}
h -t 0.380384 -s 0 -d 1 -p tcp -e 1540 -c 0 -i 2 -a 0 -x {0.0 3.0 -1 ------- null}
+ -t 0.380384 -s 0 -d 1 -p tcp -e 1540 -c 0 -i 3 -a 0 -x {0.0 3.0 2 ------- null}
- -t 0.382848 -s 0 -d 1 -p tcp -e 1540 -c 0 -i 3 -a 0 -x {0.0 3.0 2 ------- null}
h -t 0.382848 -s 0 -d 1 -p tcp -e 1540 -c 0 -i 3 -a 0 -x {0.0 3.0 -1 ------- null}
r -t 0.402848 -s 0 -d 1 -p tcp -e 1540 -c 0 -i 2 -a 0 -x {0.0 3.0 1 ------- null}
+ -t 0.402848 -s 1 -d 2 -p tcp -e 1540 -c 0 -i 2 -a 0 -x {0.0 3.0 1 ------- null}
- -t 0.402848 -s 1 -d 2 -p tcp -e 1540 -c 0 -i 2 -a 0 -x {0.0 3.0 1 ------- null}
h -t 0.402848 -s 1 -d 2 -p tcp -e 1540 -c 0 -i 2 -a 0 -x {0.0 3.0 -1 ------- null}
r -t 0.405312 -s 0 -d 1 -p tcp -e 1540 -c 0 -i 3 -a 0 -x {0.0 3.0 2 ------- null}
+ -t 0.405312 -s 1 -d 2 -p tcp -e 1540 -c 0 -i 3 -a 0 -x {0.0 3.0 2 ------- null}
- -t 0.405312 -s 1 -d 2 -p tcp -e 1540 -c 0 -i 3 -a 0 -x {0.0 3.0 2 ------- null}
h -t 0.405312 -s 1 -d 2 -p tcp -e 1540 -c 0 -i 3 -a 0 -x {0.0 3.0 -1 ------- null}
r -t 0.505312 -s 1 -d 2 -p tcp -e 1540 -c 0 -i 2 -a 0 -x {0.0 3.0 1 ------- null}
+ -t 0.505312 -s 2 -d 3 -p tcp -e 1540 -c 0 -i 2 -a 0 -x {0.0 3.0 1 ------- null}
- -t 0.505312 -s 2 -d 3 -p tcp -e 1540 -c 0 -i 2 -a 0 -x {0.0 3.0 1 ------- null}
h -t 0.505312 -s 2 -d 3 -p tcp -e 1540 -c 0 -i 2 -a 0 -x {0.0 3.0 -1 ------- null}
r -t 0.507776 -s 1 -d 2 -p tcp -e 1540 -c 0 -i 3 -a 0 -x {0.0 3.0 2 ------- null}
+ -t 0.507776 -s 2 -d 3 -p tcp -e 1540 -c 0 -i 3 -a 0 -x {0.0 3.0 2 ------- null}
- -t 0.507776 -s 2 -d 3 -p tcp -e 1540 -c 0 -i 3 -a 0 -x {0.0 3.0 2 ------- null}
h -t 0.507776 -s 2 -d 3 -p tcp -e 1540 -c 0 -i 3 -a 0 -x {0.0 3.0 -1 ------- null}
r -t 0.527776 -s 2 -d 3 -p tcp -e 1540 -c 0 -i 2 -a 0 -x {0.0 3.0 1 ------- null}
+ -t 0.527776 -s 3 -d 2 -p ack -e 40 -c 0 -i 4 -a 0 -x {3.0 0.0 1 ------- null}
- -t 0.527776 -s 3 -d 2 -p ack -e 40 -c 0 -i 4 -a 0 -x {3.0 0.0 1 ------- null}
h -t 0.527776 -s 3 -d 2 -p ack -e 40 -c 0 -i 4 -a 0 -x {3.0 0.0 -1 ------- null}
r -t 0.53024 -s 2 -d 3 -p tcp -e 1540 -c 0 -i 3 -a 0 -x {0.0 3.0 2 ------- null}
+ -t 0.53024 -s 3 -d 2 -p ack -e 40 -c 0 -i 5 -a 0 -x {3.0 0.0 2 ------- null}
- -t 0.53024 -s 3 -d 2 -p ack -e 40 -c 0 -i 5 -a 0 -x {3.0 0.0 2 ------- null}
h -t 0.53024 -s 3 -d 2 -p ack -e 40 -c 0 -i 5 -a 0 -x {3.0 0.0 -1 ------- null}
r -t 0.54784 -s 3 -d 2 -p ack -e 40 -c 0 -i 4 -a 0 -x {3.0 0.0 1 ------- null}
+ -t 0.54784 -s 2 -d 1 -p ack -e 40 -c 0 -i 4 -a 0 -x {3.0 0.0 1 ------- null}
- -t 0.54784 -s 2 -d 1 -p ack -e 40 -c 0 -i 4 -a 0 -x {3.0 0.0 1 ------- null}
h -t 0.54784 -s 2 -d 1 -p ack -e 40 -c 0 -i 4 -a 0 -x {3.0 0.0 -1 ------- null}
r -t 0.550304 -s 3 -d 2 -p ack -e 40 -c 0 -i 5 -a 0 -x {3.0 0.0 2 ------- null}
+ -t 0.550304 -s 2 -d 1 -p ack -e 40 -c 0 -i 5 -a 0 -x {3.0 0.0 2 ------- null}
- -t 0.550304 -s 2 -d 1 -p ack -e 40 -c 0 -i 5 -a 0 -x {3.0 0.0 2 ------- null}
h -t 0.550304 -s 2 -d 1 -p ack -e 40 -c 0 -i 5 -a 0 -x {3.0 0.0 -1 ------- null}
r -t 0.647904 -s 2 -d 1 -p ack -e 40 -c 0 -i 4 -a 0 -x {3.0 0.0 1 ------- null}
+ -t 0.647904 -s 1 -d 0 -p ack -e 40 -c 0 -i 4 -a 0 -x {3.0 0.0 1 ------- null}
- -t 0.647904 -s 1 -d 0 -p ack -e 40 -c 0 -i 4 -a 0 -x {3.0 0.0 1 ------- null}
h -t 0.647904 -s 1 -d 0 -p ack -e 40 -c 0 -i 4 -a 0 -x {3.0 0.0 -1 ------- null}
r -t 0.650368 -s 2 -d 1 -p ack -e 40 -c 0 -i 5 -a 0 -x {3.0 0.0 2 ------- null}
+ -t 0.650368 -s 1 -d 0 -p ack -e 40 -c 0 -i 5 -a 0 -x {3.0 0.0 2 ------- null}
- -t 0.650368 -s 1 -d 0 -p ack -e 40 -c 0 -i 5 -a 0 -x {3.0 0.0 2 ------- null}
h -t 0.650368 -s 1 -d 0 -p ack -e 40 -c 0 -i 5 -a 0 -x {3.0 0.0 -1 ------- null}
r -t 0.667968 -s 1 -d 0 -p ack -e 40 -c 0 -i 4 -a 0 -x {3.0 0.0 1 ------- null}
+ -t 0.667968 -s 0 -d 1 -p tcp -e 1540 -c 0 -i 6 -a 0 -x {0.0 3.0 3 ------- null}
- -t 0.667968 -s 0 -d 1 -p tcp -e 1540 -c 0 -i 6 -a 0 -x {0.0 3.0 3 ------- null}
h -t 0.667968 -s 0 -d 1 -p tcp -e 1540 -c 0 -i 6 -a 0 -x {0.0 3.0 -1 ------- null}
+ -t 0.667968 -s 0 -d 1 -p tcp -e 1540 -c 0 -i 7 -a 0 -x {0.0 3.0 4 ------- null}
r -t 0.670432 -s 1 -d 0 -p ack -e 40 -c 0 -i 5 -a 0 -x {3.0 0.0 2 ------- null}
+ -t 0.670432 -s 0 -d 1 -p tcp -e 1540 -c 0 -i 8 -a 0 -x {0.0 3.0 5 ------- null}
+ -t 0.670432 -s 0 -d 1 -p tcp -e 1540 -c 0 -i 9 -a 0 -x {0.0 3.0 6 ------- null}
- -t 0.670432 -s 0 -d 1 -p tcp -e 1540 -c 0 -i 7 -a 0 -x {0.0 3.0 4 ------- null}
h -t 0.670432 -s 0 -d 1 -p tcp -e 1540 -c 0 -i 7 -a 0 -x {0.0 3.0 -1 ------- null}
- -t 0.672896 -s 0 -d 1 -p tcp -e 1540 -c 0 -i 8 -a 0 -x {0.0 3.0 5 ------- null}
h -t 0.672896 -s 0 -d 1 -p tcp -e 1540 -c 0 -i 8 -a 0 -x {0.0 3.0 -1 ------- null}
- -t 0.67536 -s 0 -d 1 -p tcp -e 1540 -c 0 -i 9 -a 0 -x {0.0 3.0 6 ------- null}
h -t 0.67536 -s 0 -d 1 -p tcp -e 1540 -c 0 -i 9 -a 0 -x {0.0 3.0 -1 ------- null}
r -t 0.690432 -s 0 -d 1 -p tcp -e 1540 -c 0 -i 6 -a 0 -x {0.0 3.0 3 ------- null}
+ -t 0.690432 -s 1 -d 2 -p tcp -e 1540 -c 0 -i 6 -a 0 -x {0.0 3.0 3 ------- null}
- -t 0.690432 -s 1 -d 2 -p tcp -e 1540 -c 0 -i 6 -a 0 -x {0.0 3.0 3 ------- null}
h -t 0.690432 -s 1 -d 2 -p tcp -e 1540 -c 0 -i 6 -a 0 -x {0.0 3.0 -1 ------- null}
r -t 0.692896 -s 0 -d 1 -p tcp -e 1540 -c 0 -i 7 -a 0 -x {0.0 3.0 4 ------- null}
+ -t 0.692896 -s 1 -d 2 -p tcp -e 1540 -c 0 -i 7 -a 0 -x {0.0 3.0 4 ------- null}
- -t 0.692896 -s 1 -d 2 -p tcp -e 1540 -c 0 -i 7 -a 0 -x {0.0 3.0 4 ------- null}
h -t 0.692896 -s 1 -d 2 -p tcp -e 1540 -c 0 -i 7 -a 0 -x {0.0 3.0 -1 ------- null}
r -t 0.69536 -s 0 -d 1 -p tcp -e 1540 -c 0 -i 8 -a 0 -x {0.0 3.0 5 ------- null}
+ -t 0.69536 -s 1 -d 2 -p tcp -e 1540 -c 0 -i 8 -a 0 -x {0.0 3.0 5 ------- null}
- -t 0.69536 -s 1 -d 2 -p tcp -e 1540 -c 0 -i 8 -a 0 -x {0.0 3.0 5 ------- null}
h -t 0.69536 -s 1 -d 2 -p tcp -e 1540 -c 0 -i 8 -a 0 -x {0.0 3.0 -1 ------- null}
r -t 0.697824 -s 0 -d 1 -p tcp -e 1540 -c 0 -i 9 -a 0 -x {0.0 3.0 6 ------- null}
+ -t 0.697824 -s 1 -d 2 -p tcp -e 1540 -c 0 -i 9 -a 0 -x {0.0 3.0 6 ------- null}
- -t 0.697824 -s 1 -d 2 -p tcp -e 1540 -c 0 -i 9 -a 0 -x {0.0 3.0 6 ------- null}
h -t 0.697824 -s 1 -d 2 -p tcp -e 1540 -c 0 -i 9 -a 0 -x {0.0 3.0 -1 ------- null}
r -t 0.792896 -s 1 -d 2 -p tcp -e 1540 -c 0 -i 6 -a 0 -x {0.0 3.0 3 ------- null}
+ -t 0.792896 -s 2 -d 3 -p tcp -e 1540 -c 0 -i 6 -a 0 -x {0.0 3.0 3 ------- null}
- -t 0.792896 -s 2 -d 3 -p tcp -e 1540 -c 0 -i 6 -a 0 -x {0.0 3.0 3 ------- null}
h -t 0.792896 -s 2 -d 3 -p tcp -e 1540 -c 0 -i 6 -a 0 -x {0.0 3.0 -1 ------- null}
r -t 0.79536 -s 1 -d 2 -p tcp -e 1540 -c 0 -i 7 -a 0 -x {0.0 3.0 4 ------- null}
+ -t 0.79536 -s 2 -d 3 -p tcp -e 1540 -c 0 -i 7 -a 0 -x {0.0 3.0 4 ------- null}
- -t 0.79536 -s 2 -d 3 -p tcp -e 1540 -c 0 -i 7 -a 0 -x {0.0 3.0 4 ------- null}
h -t 0.79536 -s 2 -d 3 -p tcp -e 1540 -c 0 -i 7 -a 0 -x {0.0 3.0 -1 ------- null}
r -t 0.797824 -s 1 -d 2 -p tcp -e 1540 -c 0 -i 8 -a 0 -x {0.0 3.0 5 ------- null}
+ -t 0.797824 -s 2 -d 3 -p tcp -e 1540 -c 0 -i 8 -a 0 -x {0.0 3.0 5 ------- null}
- -t 0.797824 -s 2 -d 3 -p tcp -e 1540 -c 0 -i 8 -a 0 -x {0.0 3.0 5 ------- null}
h -t 0.797824 -s 2 -d 3 -p tcp -e 1540 -c 0 -i 8 -a 0 -x {0.0 3.0 -1 ------- null}
r -t 0.800288 -s 1 -d 2 -p tcp -e 1540 -c 0 -i 9 -a 0 -x {0.0 3.0 6 ------- null}
+ -t 0.800288 -s 2 -d 3 -p tcp -e 1540 -c 0 -i 9 -a 0 -x {0.0 3.0 6 ------- null}
- -t 0.800288 -s 2 -d 3 -p tcp -e 1540 -c 0 -i 9 -a 0 -x {0.0 3.0 6 ------- null}
h -t 0.800288 -s 2 -d 3 -p tcp -e 1540 -c 0 -i 9 -a 0 -x {0.0 3.0 -1 ------- null}
r -t 0.81536 -s 2 -d 3 -p tcp -e 1540 -c 0 -i 6 -a 0 -x {0.0 3.0 3 ------- null}
+ -t 0.81536 -s 3 -d 2 -p ack -e 40 -c 0 -i 10 -a 0 -x {3.0 0.0 3 ------- null}
- -t 0.81536 -s 3 -d 2 -p ack -e 40 -c 0 -i 10 -a 0 -x {3.0 0.0 3 ------- null}
h -t 0.81536 -s 3 -d 2 -p ack -e 40 -c 0 -i 10 -a 0 -x {3.0 0.0 -1 ------- null}
r -t 0.817824 -s 2 -d 3 -p tcp -e 1540 -c 0 -i 7 -a 0 -x {0.0 3.0 4 ------- null}
+ -t 0.817824 -s 3 -d 2 -p ack -e 40 -c 0 -i 11 -a 0 -x {3.0 0.0 4 ------- null}
- -t 0.817824 -s 3 -d 2 -p ack -e 40 -c 0 -i 11 -a 0 -x {3.0 0.0 4 ------- null}
h -t 0.817824 -s 3 -d 2 -p ack -e 40 -c 0 -i 11 -a 0 -x {3.0 0.0 -1 ------- null}
r -t 0.820288 -s 2 -d 3 -p tcp -e 1540 -c 0 -i 8 -a 0 -x {0.0 3.0 5 ------- null}
+ -t 0.820288 -s 3 -d 2 -p ack -e 40 -c 0 -i 12 -a 0 -x {3.0 0.0 5 ------- null}
- -t 0.820288 -s 3 -d 2 -p ack -e 40 -c 0 -i 12 -a 0 -x {3.0 0.0 5 ------- null}
h -t 0.820288 -s 3 -d 2 -p ack -e 40 -c 0 -i 12 -a 0 -x {3.0 0.0 -1 ------- null}
r -t 0.822752 -s 2 -d 3 -p tcp -e 1540 -c 0 -i 9 -a 0 -x {0.0 3.0 6 ------- null}
+ -t 0.822752 -s 3 -d 2 -p ack -e 40 -c 0 -i 13 -a 0 -x {3.0 0.0 6 ------- null}
- -t 0.822752 -s 3 -d 2 -p ack -e 40 -c 0 -i 13 -a 0 -x {3.0 0.0 6 ------- null}
h -t 0.822752 -s 3 -d 2 -p ack -e 40 -c 0 -i 13 -a 0 -x {3.0 0.0 -1 ------- null}
r -t 0.835424 -s 3 -d 2 -p ack -e 40 -c 0 -i 10 -a 0 -x {3.0 0.0 3 ------- null}
+ -t 0.835424 -s 2 -d 1 -p ack -e 40 -c 0 -i 10 -a 0 -x {3.0 0.0 3 ------- null}
- -t 0.835424 -s 2 -d 1 -p ack -e 40 -c 0 -i 10 -a 0 -x {3.0 0.0 3 ------- null}
h -t 0.835424 -s 2 -d 1 -p ack -e 40 -c 0 -i 10 -a 0 -x {3.0 0.0 -1 ------- null}
r -t 0.837888 -s 3 -d 2 -p ack -e 40 -c 0 -i 11 -a 0 -x {3.0 0.0 4 ------- null}
+ -t 0.837888 -s 2 -d 1 -p ack -e 40 -c 0 -i 11 -a 0 -x {3.0 0.0 4 ------- null}
- -t 0.837888 -s 2 -d 1 -p ack -e 40 -c 0 -i 11 -a 0 -x {3.0 0.0 4 ------- null}
h -t 0.837888 -s 2 -d 1 -p ack -e 40 -c 0 -i 11 -a 0 -x {3.0 0.0 -1 ------- null}
r -t 0.840352 -s 3 -d 2 -p ack -e 40 -c 0 -i 12 -a 0 -x {3.0 0.0 5 ------- null}
+ -t 0.840352 -s 2 -d 1 -p ack -e 40 -c 0 -i 12 -a 0 -x {3.0 0.0 5 ------- null}
- -t 0.840352 -s 2 -d 1 -p ack -e 40 -c 0 -i 12 -a 0 -x {3.0 0.0 5 ------- null}
h -t 0.840352 -s 2 -d 1 -p ack -e 40 -c 0 -i 12 -a 0 -x {3.0 0.0 -1 ------- null}
r -t 0.842816 -s 3 -d 2 -p ack -e 40 -c 0 -i 13 -a 0 -x {3.0 0.0 6 ------- null}
+ -t 0.842816 -s 2 -d 1 -p ack -e 40 -c 0 -i 13 -a 0 -x {3.0 0.0 6 ------- null}
- -t 0.842816 -s 2 -d 1 -p ack -e 40 -c 0 -i 13 -a 0 -x {3.0 0.0 6 ------- null}
h -t 0.842816 -s 2 -d 1 -p ack -e 40 -c 0 -i 13 -a 0 -x {3.0 0.0 -1 ------- null}
r -t 0.935488 -s 2 -d 1 -p ack -e 40 -c 0 -i 10 -a 0 -x {3.0 0.0 3 ------- null}
+ -t 0.935488 -s 1 -d 0 -p ack -e 40 -c 0 -i 10 -a 0 -x {3.0 0.0 3 ------- null}
- -t 0.935488 -s 1 -d 0 -p ack -e 40 -c 0 -i 10 -a 0 -x {3.0 0.0 3 ------- null}
h -t 0.935488 -s 1 -d 0 -p ack -e 40 -c 0 -i 10 -a 0 -x {3.0 0.0 -1 ------- null}
r -t 0.937952 -s 2 -d 1 -p ack -e 40 -c 0 -i 11 -a 0 -x {3.0 0.0 4 ------- null}
+ -t 0.937952 -s 1 -d 0 -p ack -e 40 -c 0 -i 11 -a 0 -x {3.0 0.0 4 ------- null}
- -t 0.937952 -s 1 -d 0 -p ack -e 40 -c 0 -i 11 -a 0 -x {3.0 0.0 4 ------- null}
h -t 0.937952 -s 1 -d 0 -p ack -e 40 -c 0 -i 11 -a 0 -x {3.0 0.0 -1 ------- null}
r -t 0.940416 -s 2 -d 1 -p ack -e 40 -c 0 -i 12 -a 0 -x {3.0 0.0 5 ------- null}
+ -t 0.940416 -s 1 -d 0 -p ack -e 40 -c 0 -i 12 -a 0 -x {3.0 0.0 5 ------- null}
- -t 0.940416 -s 1 -d 0 -p ack -e 40 -c 0 -i 12 -a 0 -x {3.0 0.0 5 ------- null}
h -t 0.940416 -s 1 -d 0 -p ack -e 40 -c 0 -i 12 -a 0 -x {3.0 0.0 -1 ------- null}
r -t 0.94288 -s 2 -d 1 -p ack -e 40 -c 0 -i 13 -a 0 -x {3.0 0.0 6 ------- null}
+ -t 0.94288 -s 1 -d 0 -p ack -e 40 -c 0 -i 13 -a 0 -x {3.0 0.0 6 ------- null}
- -t 0.94288 -s 1 -d 0 -p ack -e 40 -c 0 -i 13 -a 0 -x {3.0 0.0 6 ------- null}
h -t 0.94288 -s 1 -d 0 -p ack -e 40 -c 0 -i 13 -a 0 -x {3.0 0.0 -1 ------- null}
r -t 0.955552 -s 1 -d 0 -p ack -e 40 -c 0 -i 10 -a 0 -x {3.0 0.0 3 ------- null}
+ -t 0.955552 -s 0 -d 1 -p tcp -e 1540 -c 0 -i 14 -a 0 -x {0.0 3.0 7 ------- null}
- -t 0.955552 -s 0 -d 1 -p tcp -e 1540 -c 0 -i 14 -a 0 -x {0.0 3.0 7 ------- null}
h -t 0.955552 -s 0 -d 1 -p tcp -e 1540 -c 0 -i 14 -a 0 -x {0.0 3.0 -1 ------- null}
+ -t 0.955552 -s 0 -d 1 -p tcp -e 1540 -c 0 -i 15 -a 0 -x {0.0 3.0 8 ------- null}
r -t 0.958016 -s 1 -d 0 -p ack -e 40 -c 0 -i 11 -a 0 -x {3.0 0.0 4 ------- null}
+ -t 0.958016 -s 0 -d 1 -p tcp -e 1540 -c 0 -i 16 -a 0 -x {0.0 3.0 9 ------- null}
+ -t 0.958016 -s 0 -d 1 -p tcp -e 1540 -c 0 -i 17 -a 0 -x {0.0 3.0 10 ------- null}
- -t 0.958016 -s 0 -d 1 -p tcp -e 1540 -c 0 -i 15 -a 0 -x {0.0 3.0 8 ------- null}
h -t 0.958016 -s 0 -d 1 -p tcp -e 1540 -c 0 -i 15 -a 0 -x {0.0 3.0 -1 ------- null}
r -t 0.96048 -s 1 -d 0 -p ack -e 40 -c 0 -i 12 -a 0 -x {3.0 0.0 5 ------- null}
+ -t 0.96048 -s 0 -d 1 -p tcp -e 1540 -c 0 -i 18 -a 0 -x {0.0 3.0 11 ------- null}
+ -t 0.96048 -s 0 -d 1 -p tcp -e 1540 -c 0 -i 19 -a 0 -x {0.0 3.0 12 ------- null}
- -t 0.96048 -s 0 -d 1 -p tcp -e 1540 -c 0 -i 16 -a 0 -x {0.0 3.0 9 ------- null}
h -t 0.96048 -s 0 -d 1 -p tcp -e 1540 -c 0 -i 16 -a 0 -x {0.0 3.0 -1 ------- null}
r -t 0.962944 -s 1 -d 0 -p ack -e 40 -c 0 -i 13 -a 0 -x {3.0 0.0 6 ------- null}
+ -t 0.962944 -s 0 -d 1 -p tcp -e 1540 -c 0 -i 20 -a 0 -x {0.0 3.0 13 ------- null}
+ -t 0.962944 -s 0 -d 1 -p tcp -e 1540 -c 0 -i 21 -a 0 -x {0.0 3.0 14 ------- null}
- -t 0.962944 -s 0 -d 1 -p tcp -e 1540 -c 0 -i 17 -a 0 -x {0.0 3.0 10 ------- null}
h -t 0.962944 -s 0 -d 1 -p tcp -e 1540 -c 0 -i 17 -a 0 -x {0.0 3.0 -1 ------- null}
- -t 0.965408 -s 0 -d 1 -p tcp -e 1540 -c 0 -i 18 -a 0 -x {0.0 3.0 11 ------- null}
h -t 0.965408 -s 0 -d 1 -p tcp -e 1540 -c 0 -i 18 -a 0 -x {0.0 3.0 -1 ------- null}
- -t 0.967872 -s 0 -d 1 -p tcp -e 1540 -c 0 -i 19 -a 0 -x {0.0 3.0 12 ------- null}
h -t 0.967872 -s 0 -d 1 -p tcp -e 1540 -c 0 -i 19 -a 0 -x {0.0 3.0 -1 ------- null}
- -t 0.970336 -s 0 -d 1 -p tcp -e 1540 -c 0 -i 20 -a 0 -x {0.0 3.0 13 ------- null}
h -t 0.970336 -s 0 -d 1 -p tcp -e 1540 -c 0 -i 20 -a 0 -x {0.0 3.0 -1 ------- null}
- -t 0.9728 -s 0 -d 1 -p tcp -e 1540 -c 0 -i 21 -a 0 -x {0.0 3.0 14 ------- null}
h -t 0.9728 -s 0 -d 1 -p tcp -e 1540 -c 0 -i 21 -a 0 -x {0.0 3.0 -1 ------- null}
r -t 0.978016 -s 0 -d 1 -p tcp -e 1540 -c 0 -i 14 -a 0 -x {0.0 3.0 7 ------- null}
+ -t 0.978016 -s 1 -d 2 -p tcp -e 1540 -c 0 -i 14 -a 0 -x {0.0 3.0 7 ------- null}
- -t 0.978016 -s 1 -d 2 -p tcp -e 1540 -c 0 -i 14 -a 0 -x {0.0 3.0 7 ------- null}
h -t 0.978016 -s 1 -d 2 -p tcp -e 1540 -c 0 -i 14 -a 0 -x {0.0 3.0 -1 ------- null}
r -t 0.98048 -s 0 -d 1 -p tcp -e 1540 -c 0 -i 15 -a 0 -x {0.0 3.0 8 ------- null}
+ -t 0.98048 -s 1 -d 2 -p tcp -e 1540 -c 0 -i 15 -a 0 -x {0.0 3.0 8 ------- null}
- -t 0.98048 -s 1 -d 2 -p tcp -e 1540 -c 0 -i 15 -a 0 -x {0.0 3.0 8 ------- null}
h -t 0.98048 -s 1 -d 2 -p tcp -e 1540 -c 0 -i 15 -a 0 -x {0.0 3.0 -1 ------- null}
r -t 0.982944 -s 0 -d 1 -p tcp -e 1540 -c 0 -i 16 -a 0 -x {0.0 3.0 9 ------- null}
+ -t 0.982944 -s 1 -d 2 -p tcp -e 1540 -c 0 -i 16 -a 0 -x {0.0 3.0 9 ------- null}
- -t 0.982944 -s 1 -d 2 -p tcp -e 1540 -c 0 -i 16 -a 0 -x {0.0 3.0 9 ------- null}
h -t 0.982944 -s 1 -d 2 -p tcp -e 1540 -c 0 -i 16 -a 0 -x {0.0 3.0 -1 ------- null}
r -t 0.985408 -s 0 -d 1 -p tcp -e 1540 -c 0 -i 17 -a 0 -x {0.0 3.0 10 ------- null}
+ -t 0.985408 -s 1 -d 2 -p tcp -e 1540 -c 0 -i 17 -a 0 -x {0.0 3.0 10 ------- null}
- -t 0.985408 -s 1 -d 2 -p tcp -e 1540 -c 0 -i 17 -a 0 -x {0.0 3.0 10 ------- null}
h -t 0.985408 -s 1 -d 2 -p tcp -e 1540 -c 0 -i 17 -a 0 -x {0.0 3.0 -1 ------- null}
r -t 0.987872 -s 0 -d 1 -p tcp -e 1540 -c 0 -i 18 -a 0 -x {0.0 3.0 11 ------- null}
+ -t 0.987872 -s 1 -d 2 -p tcp -e 1540 -c 0 -i 18 -a 0 -x {0.0 3.0 11 ------- null}
- -t 0.987872 -s 1 -d 2 -p tcp -e 1540 -c 0 -i 18 -a 0 -x {0.0 3.0 11 ------- null}
h -t 0.987872 -s 1 -d 2 -p tcp -e 1540 -c 0 -i 18 -a 0 -x {0.0 3.0 -1 ------- null}
r -t 0.990336 -s 0 -d 1 -p tcp -e 1540 -c 0 -i 19 -a 0 -x {0.0 3.0 12 ------- null}
+ -t 0.990336 -s 1 -d 2 -p tcp -e 1540 -c 0 -i 19 -a 0 -x {0.0 3.0 12 ------- null}
- -t 0.990336 -s 1 -d 2 -p tcp -e 1540 -c 0 -i 19 -a 0 -x {0.0 3.0 12 ------- null}
h -t 0.990336 -s 1 -d 2 -p tcp -e 1540 -c 0 -i 19 -a 0 -x {0.0 3.0 -1 ------- null}
r -t 0.9928 -s 0 -d 1 -p tcp -e 1540 -c 0 -i 20 -a 0 -x {0.0 3.0 13 ------- null}
+ -t 0.9928 -s 1 -d 2 -p tcp -e 1540 -c 0 -i 20 -a 0 -x {0.0 3.0 13 ------- null}
- -t 0.9928 -s 1 -d 2 -p tcp -e 1540 -c 0 -i 20 -a 0 -x {0.0 3.0 13 ------- null}
h -t 0.9928 -s 1 -d 2 -p tcp -e 1540 -c 0 -i 20 -a 0 -x {0.0 3.0 -1 ------- null}
r -t 0.995264 -s 0 -d 1 -p tcp -e 1540 -c 0 -i 21 -a 0 -x {0.0 3.0 14 ------- null}
+ -t 0.995264 -s 1 -d 2 -p tcp -e 1540 -c 0 -i 21 -a 0 -x {0.0 3.0 14 ------- null}
- -t 0.995264 -s 1 -d 2 -p tcp -e 1540 -c 0 -i 21 -a 0 -x {0.0 3.0 14 ------- null}
h -t 0.995264 -s 1 -d 2 -p tcp -e 1540 -c 0 -i 21 -a 0 -x {0.0 3.0 -1 ------- null}
r -t 1.08048 -s 1 -d 2 -p tcp -e 1540 -c 0 -i 14 -a 0 -x {0.0 3.0 7 ------- null}
+ -t 1.08048 -s 2 -d 3 -p tcp -e 1540 -c 0 -i 14 -a 0 -x {0.0 3.0 7 ------- null}
- -t 1.08048 -s 2 -d 3 -p tcp -e 1540 -c 0 -i 14 -a 0 -x {0.0 3.0 7 ------- null}
h -t 1.08048 -s 2 -d 3 -p tcp -e 1540 -c 0 -i 14 -a 0 -x {0.0 3.0 -1 ------- null}
r -t 1.082944 -s 1 -d 2 -p tcp -e 1540 -c 0 -i 15 -a 0 -x {0.0 3.0 8 ------- null}
+ -t 1.082944 -s 2 -d 3 -p tcp -e 1540 -c 0 -i 15 -a 0 -x {0.0 3.0 8 ------- null}
- -t 1.082944 -s 2 -d 3 -p tcp -e 1540 -c 0 -i 15 -a 0 -x {0.0 3.0 8 ------- null}
h -t 1.082944 -s 2 -d 3 -p tcp -e 1540 -c 0 -i 15 -a 0 -x {0.0 3.0 -1 ------- null}
r -t 1.085408 -s 1 -d 2 -p tcp -e 1540 -c 0 -i 16 -a 0 -x {0.0 3.0 9 ------- null}
+ -t 1.085408 -s 2 -d 3 -p tcp -e 1540 -c 0 -i 16 -a 0 -x {0.0 3.0 9 ------- null}
- -t 1.085408 -s 2 -d 3 -p tcp -e 1540 -c 0 -i 16 -a 0 -x {0.0 3.0 9 ------- null}
h -t 1.085408 -s 2 -d 3 -p tcp -e 1540 -c 0 -i 16 -a 0 -x {0.0 3.0 -1 ------- null}
r -t 1.087872 -s 1 -d 2 -p tcp -e 1540 -c 0 -i 17 -a 0 -x {0.0 3.0 10 ------- null}
+ -t 1.087872 -s 2 -d 3 -p tcp -e 1540 -c 0 -i 17 -a 0 -x {0.0 3.0 10 ------- null}
- -t 1.087872 -s 2 -d 3 -p tcp -e 1540 -c 0 -i 17 -a 0 -x {0.0 3.0 10 ------- null}
h -t 1.087872 -s 2 -d 3 -p tcp -e 1540 -c 0 -i 17 -a 0 -x {0.0 3.0 -1 ------- null}
r -t 1.090336 -s 1 -d 2 -p tcp -e 1540 -c 0 -i 18 -a 0 -x {0.0 3.0 11 ------- null}
+ -t 1.090336 -s 2 -d 3 -p tcp -e 1540 -c 0 -i 18 -a 0 -x {0.0 3.0 11 ------- null}
- -t 1.090336 -s 2 -d 3 -p tcp -e 1540 -c 0 -i 18 -a 0 -x {0.0 3.0 11 ------- null}
h -t 1.090336 -s 2 -d 3 -p tcp -e 1540 -c 0 -i 18 -a 0 -x {0.0 3.0 -1 ------- null}
r -t 1.0928 -s 1 -d 2 -p tcp -e 1540 -c 0 -i 19 -a 0 -x {0.0 3.0 12 ------- null}
+ -t 1.0928 -s 2 -d 3 -p tcp -e 1540 -c 0 -i 19 -a 0 -x {0.0 3.0 12 ------- null}
- -t 1.0928 -s 2 -d 3 -p tcp -e 1540 -c 0 -i 19 -a 0 -x {0.0 3.0 12 ------- null}
h -t 1.0928 -s 2 -d 3 -p tcp -e 1540 -c 0 -i 19 -a 0 -x {0.0 3.0 -1 ------- null}
r -t 1.095264 -s 1 -d 2 -p tcp -e 1540 -c 0 -i 20 -a 0 -x {0.0 3.0 13 ------- null}
+ -t 1.095264 -s 2 -d 3 -p tcp -e 1540 -c 0 -i 20 -a 0 -x {0.0 3.0 13 ------- null}
- -t 1.095264 -s 2 -d 3 -p tcp -e 1540 -c 0 -i 20 -a 0 -x {0.0 3.0 13 ------- null}
h -t 1.095264 -s 2 -d 3 -p tcp -e 1540 -c 0 -i 20 -a 0 -x {0.0 3.0 -1 ------- null}
r -t 1.097728 -s 1 -d 2 -p tcp -e 1540 -c 0 -i 21 -a 0 -x {0.0 3.0 14 ------- null}
+ -t 1.097728 -s 2 -d 3 -p tcp -e 1540 -c 0 -i 21 -a 0 -x {0.0 3.0 14 ------- null}
- -t 1.097728 -s 2 -d 3 -p tcp -e 1540 -c 0 -i 21 -a 0 -x {0.0 3.0 14 ------- null}
h -t 1.097728 -s 2 -d 3 -p tcp -e 1540 -c 0 -i 21 -a 0 -x {0.0 3.0 -1 ------- null}
r -t 1.102944 -s 2 -d 3 -p tcp -e 1540 -c 0 -i 14 -a 0 -x {0.0 3.0 7 ------- null}
+ -t 1.102944 -s 3 -d 2 -p ack -e 40 -c 0 -i 22 -a 0 -x {3.0 0.0 7 ------- null}
- -t 1.102944 -s 3 -d 2 -p ack -e 40 -c 0 -i 22 -a 0 -x {3.0 0.0 7 ------- null}
h -t 1.102944 -s 3 -d 2 -p ack -e 40 -c 0 -i 22 -a 0 -x {3.0 0.0 -1 ------- null}
r -t 1.105408 -s 2 -d 3 -p tcp -e 1540 -c 0 -i 15 -a 0 -x {0.0 3.0 8 ------- null}
+ -t 1.105408 -s 3 -d 2 -p ack -e 40 -c 0 -i 23 -a 0 -x {3.0 0.0 8 ------- null}
- -t 1.105408 -s 3 -d 2 -p ack -e 40 -c 0 -i 23 -a 0 -x {3.0 0.0 8 ------- null}
h -t 1.105408 -s 3 -d 2 -p ack -e 40 -c 0 -i 23 -a 0 -x {3.0 0.0 -1 ------- null}
r -t 1.107872 -s 2 -d 3 -p tcp -e 1540 -c 0 -i 16 -a 0 -x {0.0 3.0 9 ------- null}
+ -t 1.107872 -s 3 -d 2 -p ack -e 40 -c 0 -i 24 -a 0 -x {3.0 0.0 9 ------- null}
- -t 1.107872 -s 3 -d 2 -p ack -e 40 -c 0 -i 24 -a 0 -x {3.0 0.0 9 ------- null}
h -t 1.107872 -s 3 -d 2 -p ack -e 40 -c 0 -i 24 -a 0 -x {3.0 0.0 -1 ------- null}
r -t 1.110336 -s 2 -d 3 -p tcp -e 1540 -c 0 -i 17 -a 0 -x {0.0 3.0 10 ------- null}
+ -t 1.110336 -s 3 -d 2 -p ack -e 40 -c 0 -i 25 -a 0 -x {3.0 0.0 10 ------- null}
- -t 1.110336 -s 3 -d 2 -p ack -e 40 -c 0 -i 25 -a 0 -x {3.0 0.0 10 ------- null}
h -t 1.110336 -s 3 -d 2 -p ack -e 40 -c 0 -i 25 -a 0 -x {3.0 0.0 -1 ------- null}
r -t 1.1128 -s 2 -d 3 -p tcp -e 1540 -c 0 -i 18 -a 0 -x {0.0 3.0 11 ------- null}
+ -t 1.1128 -s 3 -d 2 -p ack -e 40 -c 0 -i 26 -a 0 -x {3.0 0.0 11 ------- null}
- -t 1.1128 -s 3 -d 2 -p ack -e 40 -c 0 -i 26 -a 0 -x {3.0 0.0 11 ------- null}
h -t 1.1128 -s 3 -d 2 -p ack -e 40 -c 0 -i 26 -a 0 -x {3.0 0.0 -1 ------- null}
r -t 1.115264 -s 2 -d 3 -p tcp -e 1540 -c 0 -i 19 -a 0 -x {0.0 3.0 12 ------- null}
+ -t 1.115264 -s 3 -d 2 -p ack -e 40 -c 0 -i 27 -a 0 -x {3.0 0.0 12 ------- null}
- -t 1.115264 -s 3 -d 2 -p ack -e 40 -c 0 -i 27 -a 0 -x {3.0 0.0 12 ------- null}
h -t 1.115264 -s 3 -d 2 -p ack -e 40 -c 0 -i 27 -a 0 -x {3.0 0.0 -1 ------- null}
r -t 1.117728 -s 2 -d 3 -p tcp -e 1540 -c 0 -i 20 -a 0 -x {0.0 3.0 13 ------- null}
+ -t 1.117728 -s 3 -d 2 -p ack -e 40 -c 0 -i 28 -a 0 -x {3.0 0.0 13 ------- null}
- -t 1.117728 -s 3 -d 2 -p ack -e 40 -c 0 -i 28 -a 0 -x {3.0 0.0 13 ------- null}
h -t 1.117728 -s 3 -d 2 -p ack -e 40 -c 0 -i 28 -a 0 -x {3.0 0.0 -1 ------- null}
r -t 1.120192 -s 2 -d 3 -p tcp -e 1540 -c 0 -i 21 -a 0 -x {0.0 3.0 14 ------- null}
+ -t 1.120192 -s 3 -d 2 -p ack -e 40 -c 0 -i 29 -a 0 -x {3.0 0.0 14 ------- null}
- -t 1.120192 -s 3 -d 2 -p ack -e 40 -c 0 -i 29 -a 0 -x {3.0 0.0 14 ------- null}
h -t 1.120192 -s 3 -d 2 -p ack -e 40 -c 0 -i 29 -a 0 -x {3.0 0.0 -1 ------- null}
r -t 1.123008 -s 3 -d 2 -p ack -e 40 -c 0 -i 22 -a 0 -x {3.0 0.0 7 ------- null}
+ -t 1.123008 -s 2 -d 1 -p ack -e 40 -c 0 -i 22 -a 0 -x {3.0 0.0 7 ------- null}
- -t 1.123008 -s 2 -d 1 -p ack -e 40 -c 0 -i 22 -a 0 -x {3.0 0.0 7 ------- null}
h -t 1.123008 -s 2 -d 1 -p ack -e 40 -c 0 -i 22 -a 0 -x {3.0 0.0 -1 ------- null}
r -t 1.125472 -s 3 -d 2 -p ack -e 40 -c 0 -i 23 -a 0 -x {3.0 0.0 8 ------- null}
+ -t 1.125472 -s 2 -d 1 -p ack -e 40 -c 0 -i 23 -a 0 -x {3.0 0.0 8 ------- null}
- -t 1.125472 -s 2 -d 1 -p ack -e 40 -c 0 -i 23 -a 0 -x {3.0 0.0 8 ------- null}
h -t 1.125472 -s 2 -d 1 -p ack -e 40 -c 0 -i 23 -a 0 -x {3.0 0.0 -1 ------- null}
r -t 1.127936 -s 3 -d 2 -p ack -e 40 -c 0 -i 24 -a 0 -x {3.0 0.0 9 ------- null}
+ -t 1.127936 -s 2 -d 1 -p ack -e 40 -c 0 -i 24 -a 0 -x {3.0 0.0 9 ------- null}
- -t 1.127936 -s 2 -d 1 -p ack -e 40 -c 0 -i 24 -a 0 -x {3.0 0.0 9 ------- null}
h -t 1.127936 -s 2 -d 1 -p ack -e 40 -c 0 -i 24 -a 0 -x {3.0 0.0 -1 ------- null}
r -t 1.1304 -s 3 -d 2 -p ack -e 40 -c 0 -i 25 -a 0 -x {3.0 0.0 10 ------- null}
+ -t 1.1304 -s 2 -d 1 -p ack -e 40 -c 0 -i 25 -a 0 -x {3.0 0.0 10 ------- null}
- -t 1.1304 -s 2 -d 1 -p ack -e 40 -c 0 -i 25 -a 0 -x {3.0 0.0 10 ------- null}
h -t 1.1304 -s 2 -d 1 -p ack -e 40 -c 0 -i 25 -a 0 -x {3.0 0.0 -1 ------- null}
r -t 1.132864 -s 3 -d 2 -p ack -e 40 -c 0 -i 26 -a 0 -x {3.0 0.0 11 ------- null}
+ -t 1.132864 -s 2 -d 1 -p ack -e 40 -c 0 -i 26 -a 0 -x {3.0 0.0 11 ------- null}
- -t 1.132864 -s 2 -d 1 -p ack -e 40 -c 0 -i 26 -a 0 -x {3.0 0.0 11 ------- null}
h -t 1.132864 -s 2 -d 1 -p ack -e 40 -c 0 -i 26 -a 0 -x {3.0 0.0 -1 ------- null}
r -t 1.135328 -s 3 -d 2 -p ack -e 40 -c 0 -i 27 -a 0 -x {3.0 0.0 12 ------- null}
+ -t 1.135328 -s 2 -d 1 -p ack -e 40 -c 0 -i 27 -a 0 -x {3.0 0.0 12 ------- null}
- -t 1.135328 -s 2 -d 1 -p ack -e 40 -c 0 -i 27 -a 0 -x {3.0 0.0 12 ------- null}
h -t 1.135328 -s 2 -d 1 -p ack -e 40 -c 0 -i 27 -a 0 -x {3.0 0.0 -1 ------- null}
r -t 1.137792 -s 3 -d 2 -p ack -e 40 -c 0 -i 28 -a 0 -x {3.0 0.0 13 ------- null}
+ -t 1.137792 -s 2 -d 1 -p ack -e 40 -c 0 -i 28 -a 0 -x {3.0 0.0 13 ------- null}
- -t 1.137792 -s 2 -d 1 -p ack -e 40 -c 0 -i 28 -a 0 -x {3.0 0.0 13 ------- null}
h -t 1.137792 -s 2 -d 1 -p ack -e 40 -c 0 -i 28 -a 0 -x {3.0 0.0 -1 ------- null}
r -t 1.140256 -s 3 -d 2 -p ack -e 40 -c 0 -i 29 -a 0 -x {3.0 0.0 14 ------- null}
+ -t 1.140256 -s 2 -d 1 -p ack -e 40 -c 0 -i 29 -a 0 -x {3.0 0.0 14 ------- null}
- -t 1.140256 -s 2 -d 1 -p ack -e 40 -c 0 -i 29 -a 0 -x {3.0 0.0 14 ------- null}
h -t 1.140256 -s 2 -d 1 -p ack -e 40 -c 0 -i 29 -a 0 -x {3.0 0.0 -1 ------- null}
r -t 1.223072 -s 2 -d 1 -p ack -e 40 -c 0 -i 22 -a 0 -x {3.0 0.0 7 ------- null}
+ -t 1.223072 -s 1 -d 0 -p ack -e 40 -c 0 -i 22 -a 0 -x {3.0 0.0 7 ------- null}
- -t 1.223072 -s 1 -d 0 -p ack -e 40 -c 0 -i 22 -a 0 -x {3.0 0.0 7 ------- null}
h -t 1.223072 -s 1 -d 0 -p ack -e 40 -c 0 -i 22 -a 0 -x {3.0 0.0 -1 ------- null}
r -t 1.225536 -s 2 -d 1 -p ack -e 40 -c 0 -i 23 -a 0 -x {3.0 0.0 8 ------- null}
+ -t 1.225536 -s 1 -d 0 -p ack -e 40 -c 0 -i 23 -a 0 -x {3.0 0.0 8 ------- null}
- -t 1.225536 -s 1 -d 0 -p ack -e 40 -c 0 -i 23 -a 0 -x {3.0 0.0 8 ------- null}
h -t 1.225536 -s 1 -d 0 -p ack -e 40 -c 0 -i 23 -a 0 -x {3.0 0.0 -1 ------- null}
r -t 1.228 -s 2 -d 1 -p ack -e 40 -c 0 -i 24 -a 0 -x {3.0 0.0 9 ------- null}
+ -t 1.228 -s 1 -d 0 -p ack -e 40 -c 0 -i 24 -a 0 -x {3.0 0.0 9 ------- null}
- -t 1.228 -s 1 -d 0 -p ack -e 40 -c 0 -i 24 -a 0 -x {3.0 0.0 9 ------- null}
h -t 1.228 -s 1 -d 0 -p ack -e 40 -c 0 -i 24 -a 0 -x {3.0 0.0 -1 ------- null}
r -t 1.230464 -s 2 -d 1 -p ack -e 40 -c 0 -i 25 -a 0 -x {3.0 0.0 10 ------- null}
+ -t 1.230464 -s 1 -d 0 -p ack -e 40 -c 0 -i 25 -a 0 -x {3.0 0.0 10 ------- null}
- -t 1.230464 -s 1 -d 0 -p ack -e 40 -c 0 -i 25 -a 0 -x {3.0 0.0 10 ------- null}
h -t 1.230464 -s 1 -d 0 -p ack -e 40 -c 0 -i 25 -a 0 -x {3.0 0.0 -1 ------- null}
r -t 1.232928 -s 2 -d 1 -p ack -e 40 -c 0 -i 26 -a 0 -x {3.0 0.0 11 ------- null}
+ -t 1.232928 -s 1 -d 0 -p ack -e 40 -c 0 -i 26 -a 0 -x {3.0 0.0 11 ------- null}
- -t 1.232928 -s 1 -d 0 -p ack -e 40 -c 0 -i 26 -a 0 -x {3.0 0.0 11 ------- null}
h -t 1.232928 -s 1 -d 0 -p ack -e 40 -c 0 -i 26 -a 0 -x {3.0 0.0 -1 ------- null}
r -t 1.235392 -s 2 -d 1 -p ack -e 40 -c 0 -i 27 -a 0 -x {3.0 0.0 12 ------- null}
+ -t 1.235392 -s 1 -d 0 -p ack -e 40 -c 0 -i 27 -a 0 -x {3.0 0.0 12 ------- null}
- -t 1.235392 -s 1 -d 0 -p ack -e 40 -c 0 -i 27 -a 0 -x {3.0 0.0 12 ------- null}
h -t 1.235392 -s 1 -d 0 -p ack -e 40 -c 0 -i 27 -a 0 -x {3.0 0.0 -1 ------- null}
r -t 1.237856 -s 2 -d 1 -p ack -e 40 -c 0 -i 28 -a 0 -x {3.0 0.0 13 ------- null}
+ -t 1.237856 -s 1 -d 0 -p ack -e 40 -c 0 -i 28 -a 0 -x {3.0 0.0 13 ------- null}
- -t 1.237856 -s 1 -d 0 -p ack -e 40 -c 0 -i 28 -a 0 -x {3.0 0.0 13 ------- null}
h -t 1.237856 -s 1 -d 0 -p ack -e 40 -c 0 -i 28 -a 0 -x {3.0 0.0 -1 ------- null}
r -t 1.24032 -s 2 -d 1 -p ack -e 40 -c 0 -i 29 -a 0 -x {3.0 0.0 14 ------- null}
+ -t 1.24032 -s 1 -d 0 -p ack -e 40 -c 0 -i 29 -a 0 -x {3.0 0.0 14 ------- null}
- -t 1.24032 -s 1 -d 0 -p ack -e 40 -c 0 -i 29 -a 0 -x {3.0 0.0 14 ------- null}
h -t 1.24032 -s 1 -d 0 -p ack -e 40 -c 0 -i 29 -a 0 -x {3.0 0.0 -1 ------- null}
r -t 1.243136 -s 1 -d 0 -p ack -e 40 -c 0 -i 22 -a 0 -x {3.0 0.0 7 ------- null}
+ -t 1.243136 -s 0 -d 1 -p tcp -e 1540 -c 0 -i 30 -a 0 -x {0.0 3.0 15 ------- null}
- -t 1.243136 -s 0 -d 1 -p tcp -e 1540 -c 0 -i 30 -a 0 -x {0.0 3.0 15 ------- null}
h -t 1.243136 -s 0 -d 1 -p tcp -e 1540 -c 0 -i 30 -a 0 -x {0.0 3.0 -1 ------- null}
+ -t 1.243136 -s 0 -d 1 -p tcp -e 1540 -c 0 -i 31 -a 0 -x {0.0 3.0 16 ------- null}
r -t 1.2456 -s 1 -d 0 -p ack -e 40 -c 0 -i 23 -a 0 -x {3.0 0.0 8 ------- null}
+ -t 1.2456 -s 0 -d 1 -p tcp -e 1540 -c 0 -i 32 -a 0 -x {0.0 3.0 17 ------- null}
+ -t 1.2456 -s 0 -d 1 -p tcp -e 1540 -c 0 -i 33 -a 0 -x {0.0 3.0 18 ------- null}