+ 0.1 0 1 ping 64 ------- 0 0.0 1.0 -1 0
- 0.1 0 1 ping 64 ------- 0 0.0 1.0 -1 0
+ 0.1 1 0 ping 64 ------- 0 1.0 0.0 -1 1
- 0.1 1 0 ping 64 ------- 0 1.0 0.0 -1 1
r 0.130051 0 1 ping 64 ------- 0 0.0 1.0 -1 0
+ 0.130051 1 0 ping 64 ------- 0 1.0 0.0 -1 2
- 0.130051 1 0 ping 64 ------- 0 1.0 0.0 -1 2
r 0.130051 1 0 ping 64 ------- 0 1.0 0.0 -1 1
+ 0.130051 0 1 ping 64 ------- 0 0.0 1.0 -1 3
- 0.130051 0 1 ping 64 ------- 0 0.0 1.0 -1 3
r 0.160102 1 0 ping 64 ------- 0 1.0 0.0 -1 2
r 0.160102 0 1 ping 64 ------- 0 0.0 1.0 -1 3
+ 0.2 0 1 ping 64 ------- 0 0.0 1.0 -1 4
- 0.2 0 1 ping 64 ------- 0 0.0 1.0 -1 4
+ 0.2 1 0 ping 64 ------- 0 1.0 0.0 -1 5
- 0.2 1 0 ping 64 ------- 0 1.0 0.0 -1 5
r 0.230051 0 1 ping 64 ------- 0 0.0 1.0 -1 4
+ 0.230051 1 0 ping 64 ------- 0 1.0 0.0 -1 6
- 0.230051 1 0 ping 64 ------- 0 1.0 0.0 -1 6
r 0.230051 1 0 ping 64 ------- 0 1.0 0.0 -1 5
+ 0.230051 0 1 ping 64 ------- 0 0.0 1.0 -1 7
- 0.230051 0 1 ping 64 ------- 0 0.0 1.0 -1 7
r 0.260102 1 0 ping 64 ------- 0 1.0 0.0 -1 6
r 0.260102 0 1 ping 64 ------- 0 0.0 1.0 -1 7
+ 0.3 0 1 ping 64 ------- 0 0.0 1.0 -1 8
- 0.3 0 1 ping 64 ------- 0 0.0 1.0 -1 8
+ 0.3 1 0 ping 64 ------- 0 1.0 0.0 -1 9
- 0.3 1 0 ping 64 ------- 0 1.0 0.0 -1 9
r 0.330051 0 1 ping 64 ------- 0 0.0 1.0 -1 8
+ 0.330051 1 0 ping 64 ------- 0 1.0 0.0 -1 10
- 0.330051 1 0 ping 64 ------- 0 1.0 0.0 -1 10
r 0.330051 1 0 ping 64 ------- 0 1.0 0.0 -1 9
+ 0.330051 0 1 ping 64 ------- 0 0.0 1.0 -1 11
- 0.330051 0 1 ping 64 ------- 0 0.0 1.0 -1 11
r 0.360102 1 0 ping 64 ------- 0 1.0 0.0 -1 10
r 0.360102 0 1 ping 64 ------- 0 0.0 1.0 -1 11
