V -t * -v 1.0a5 -a 0
A -t * -n 1 -p 0 -o 0x7fffffff -c 30 -a 1
A -t * -h 1 -m 1073741823 -s 0
n -t * -a 4 -s 4 -S UP -v circle -c black -i black
n -t * -a 0 -s 0 -S UP -v circle -c black -i black
n -t * -a 5 -s 5 -S UP -v circle -c black -i black
n -t * -a 1 -s 1 -S UP -v circle -c black -i black
n -t * -a 2 -s 2 -S UP -v circle -c black -i black
n -t * -a 3 -s 3 -S UP -v circle -c black -i black
l -t * -s 0 -d 1 -S UP -r 1000000 -D 0.01 -c black
l -t * -s 1 -d 2 -S UP -r 1000000 -D 0.01 -c black
l -t * -s 1 -d 3 -S UP -r 200000 -D 0.01 -c black
l -t * -s 3 -d 4 -S UP -r 1000000 -D 0.01 -c black
l -t * -s 3 -d 5 -S UP -r 1000000 -D 0.01 -c black
+ -t 0.1 -s 0 -d 1 -p tcp -e 40 -c 0 -i 0 -a 0 -x {0.0 4.0 0 ------- null}
- -t 0.1 -s 0 -d 1 -p tcp -e 40 -c 0 -i 0 -a 0 -x {0.0 4.0 0 ------- null}
h -t 0.1 -s 0 -d 1 -p tcp -e 40 -c 0 -i 0 -a 0 -x {0.0 4.0 -1 ------- null}
r -t 0.11032 -s 0 -d 1 -p tcp -e 40 -c 0 -i 0 -a 0 -x {0.0 4.0 0 ------- null}
+ -t 0.11032 -s 1 -d 3 -p tcp -e 40 -c 0 -i 0 -a 0 -x {0.0 4.0 0 ------- null}
- -t 0.11032 -s 1 -d 3 -p tcp -e 40 -c 0 -i 0 -a 0 -x {0.0 4.0 0 ------- null}
h -t 0.11032 -s 1 -d 3 -p tcp -e 40 -c 0 -i 0 -a 0 -x {0.0 4.0 -1 ------- null}
r -t 0.12192 -s 1 -d 3 -p tcp -e 40 -c 0 -i 0 -a 0 -x {0.0 4.0 0 ------- null}
+ -t 0.12192 -s 3 -d 4 -p tcp -e 40 -c 0 -i 0 -a 0 -x {0.0 4.0 0 ------- null}
- -t 0.12192 -s 3 -d 4 -p tcp -e 40 -c 0 -i 0 -a 0 -x {0.0 4.0 0 ------- null}
h -t 0.12192 -s 3 -d 4 -p tcp -e 40 -c 0 -i 0 -a 0 -x {0.0 4.0 -1 ------- null}
r -t 0.13224 -s 3 -d 4 -p tcp -e 40 -c 0 -i 0 -a 0 -x {0.0 4.0 0 ------- null}
+ -t 0.13224 -s 4 -d 3 -p ack -e 40 -c 0 -i 1 -a 0 -x {4.0 0.0 0 ------- null}
- -t 0.13224 -s 4 -d 3 -p ack -e 40 -c 0 -i 1 -a 0 -x {4.0 0.0 0 ------- null}
h -t 0.13224 -s 4 -d 3 -p ack -e 40 -c 0 -i 1 -a 0 -x {4.0 0.0 -1 ------- null}
r -t 0.14256 -s 4 -d 3 -p ack -e 40 -c 0 -i 1 -a 0 -x {4.0 0.0 0 ------- null}
+ -t 0.14256 -s 3 -d 1 -p ack -e 40 -c 0 -i 1 -a 0 -x {4.0 0.0 0 ------- null}
- -t 0.14256 -s 3 -d 1 -p ack -e 40 -c 0 -i 1 -a 0 -x {4.0 0.0 0 ------- null}
h -t 0.14256 -s 3 -d 1 -p ack -e 40 -c 0 -i 1 -a 0 -x {4.0 0.0 -1 ------- null}
r -t 0.15416 -s 3 -d 1 -p ack -e 40 -c 0 -i 1 -a 0 -x {4.0 0.0 0 ------- null}
+ -t 0.15416 -s 1 -d 0 -p ack -e 40 -c 0 -i 1 -a 0 -x {4.0 0.0 0 ------- null}
- -t 0.15416 -s 1 -d 0 -p ack -e 40 -c 0 -i 1 -a 0 -x {4.0 0.0 0 ------- null}
h -t 0.15416 -s 1 -d 0 -p ack -e 40 -c 0 -i 1 -a 0 -x {4.0 0.0 -1 ------- null}
r -t 0.16448 -s 1 -d 0 -p ack -e 40 -c 0 -i 1 -a 0 -x {4.0 0.0 0 ------- null}
+ -t 0.16448 -s 0 -d 1 -p tcp -e 1540 -c 0 -i 2 -a 0 -x {0.0 4.0 1 ------- null}
- -t 0.16448 -s 0 -d 1 -p tcp -e 1540 -c 0 -i 2 -a 0 -x {0.0 4.0 1 ------- null}
h -t 0.16448 -s 0 -d 1 -p tcp -e 1540 -c 0 -i 2 -a 0 -x {0.0 4.0 -1 ------- null}
+ -t 0.16448 -s 0 -d 1 -p tcp -e 1540 -c 0 -i 3 -a 0 -x {0.0 4.0 2 ------- null}
- -t 0.1768 -s 0 -d 1 -p tcp -e 1540 -c 0 -i 3 -a 0 -x {0.0 4.0 2 ------- null}
h -t 0.1768 -s 0 -d 1 -p tcp -e 1540 -c 0 -i 3 -a 0 -x {0.0 4.0 -1 ------- null}
r -t 0.1868 -s 0 -d 1 -p tcp -e 1540 -c 0 -i 2 -a 0 -x {0.0 4.0 1 ------- null}
+ -t 0.1868 -s 1 -d 3 -p tcp -e 1540 -c 0 -i 2 -a 0 -x {0.0 4.0 1 ------- null}
- -t 0.1868 -s 1 -d 3 -p tcp -e 1540 -c 0 -i 2 -a 0 -x {0.0 4.0 1 ------- null}
h -t 0.1868 -s 1 -d 3 -p tcp -e 1540 -c 0 -i 2 -a 0 -x {0.0 4.0 -1 ------- null}
r -t 0.19912 -s 0 -d 1 -p tcp -e 1540 -c 0 -i 3 -a 0 -x {0.0 4.0 2 ------- null}
+ -t 0.19912 -s 1 -d 3 -p tcp -e 1540 -c 0 -i 3 -a 0 -x {0.0 4.0 2 ------- null}
- -t 0.2484 -s 1 -d 3 -p tcp -e 1540 -c 0 -i 3 -a 0 -x {0.0 4.0 2 ------- null}
h -t 0.2484 -s 1 -d 3 -p tcp -e 1540 -c 0 -i 3 -a 0 -x {0.0 4.0 -1 ------- null}
r -t 0.2584 -s 1 -d 3 -p tcp -e 1540 -c 0 -i 2 -a 0 -x {0.0 4.0 1 ------- null}
+ -t 0.2584 -s 3 -d 4 -p tcp -e 1540 -c 0 -i 2 -a 0 -x {0.0 4.0 1 ------- null}
- -t 0.2584 -s 3 -d 4 -p tcp -e 1540 -c 0 -i 2 -a 0 -x {0.0 4.0 1 ------- null}
h -t 0.2584 -s 3 -d 4 -p tcp -e 1540 -c 0 -i 2 -a 0 -x {0.0 4.0 -1 ------- null}
r -t 0.28072 -s 3 -d 4 -p tcp -e 1540 -c 0 -i 2 -a 0 -x {0.0 4.0 1 ------- null}
+ -t 0.28072 -s 4 -d 3 -p ack -e 40 -c 0 -i 4 -a 0 -x {4.0 0.0 1 ------- null}
- -t 0.28072 -s 4 -d 3 -p ack -e 40 -c 0 -i 4 -a 0 -x {4.0 0.0 1 ------- null}
h -t 0.28072 -s 4 -d 3 -p ack -e 40 -c 0 -i 4 -a 0 -x {4.0 0.0 -1 ------- null}
r -t 0.29104 -s 4 -d 3 -p ack -e 40 -c 0 -i 4 -a 0 -x {4.0 0.0 1 ------- null}
+ -t 0.29104 -s 3 -d 1 -p ack -e 40 -c 0 -i 4 -a 0 -x {4.0 0.0 1 ------- null}
- -t 0.29104 -s 3 -d 1 -p ack -e 40 -c 0 -i 4 -a 0 -x {4.0 0.0 1 ------- null}
h -t 0.29104 -s 3 -d 1 -p ack -e 40 -c 0 -i 4 -a 0 -x {4.0 0.0 -1 ------- null}
r -t 0.30264 -s 3 -d 1 -p ack -e 40 -c 0 -i 4 -a 0 -x {4.0 0.0 1 ------- null}
+ -t 0.30264 -s 1 -d 0 -p ack -e 40 -c 0 -i 4 -a 0 -x {4.0 0.0 1 ------- null}
- -t 0.30264 -s 1 -d 0 -p ack -e 40 -c 0 -i 4 -a 0 -x {4.0 0.0 1 ------- null}
h -t 0.30264 -s 1 -d 0 -p ack -e 40 -c 0 -i 4 -a 0 -x {4.0 0.0 -1 ------- null}
r -t 0.31296 -s 1 -d 0 -p ack -e 40 -c 0 -i 4 -a 0 -x {4.0 0.0 1 ------- null}
+ -t 0.31296 -s 0 -d 1 -p tcp -e 1540 -c 0 -i 5 -a 0 -x {0.0 4.0 3 ------- null}
- -t 0.31296 -s 0 -d 1 -p tcp -e 1540 -c 0 -i 5 -a 0 -x {0.0 4.0 3 ------- null}
h -t 0.31296 -s 0 -d 1 -p tcp -e 1540 -c 0 -i 5 -a 0 -x {0.0 4.0 -1 ------- null}
+ -t 0.31296 -s 0 -d 1 -p tcp -e 1540 -c 0 -i 6 -a 0 -x {0.0 4.0 4 ------- null}
r -t 0.32 -s 1 -d 3 -p tcp -e 1540 -c 0 -i 3 -a 0 -x {0.0 4.0 2 ------- null}
+ -t 0.32 -s 3 -d 4 -p tcp -e 1540 -c 0 -i 3 -a 0 -x {0.0 4.0 2 ------- null}
- -t 0.32 -s 3 -d 4 -p tcp -e 1540 -c 0 -i 3 -a 0 -x {0.0 4.0 2 ------- null}
h -t 0.32 -s 3 -d 4 -p tcp -e 1540 -c 0 -i 3 -a 0 -x {0.0 4.0 -1 ------- null}
- -t 0.32528 -s 0 -d 1 -p tcp -e 1540 -c 0 -i 6 -a 0 -x {0.0 4.0 4 ------- null}
h -t 0.32528 -s 0 -d 1 -p tcp -e 1540 -c 0 -i 6 -a 0 -x {0.0 4.0 -1 ------- null}
r -t 0.33528 -s 0 -d 1 -p tcp -e 1540 -c 0 -i 5 -a 0 -x {0.0 4.0 3 ------- null}
+ -t 0.33528 -s 1 -d 3 -p tcp -e 1540 -c 0 -i 5 -a 0 -x {0.0 4.0 3 ------- null}
- -t 0.33528 -s 1 -d 3 -p tcp -e 1540 -c 0 -i 5 -a 0 -x {0.0 4.0 3 ------- null}
h -t 0.33528 -s 1 -d 3 -p tcp -e 1540 -c 0 -i 5 -a 0 -x {0.0 4.0 -1 ------- null}
r -t 0.34232 -s 3 -d 4 -p tcp -e 1540 -c 0 -i 3 -a 0 -x {0.0 4.0 2 ------- null}
+ -t 0.34232 -s 4 -d 3 -p ack -e 40 -c 0 -i 7 -a 0 -x {4.0 0.0 2 ------- null}
- -t 0.34232 -s 4 -d 3 -p ack -e 40 -c 0 -i 7 -a 0 -x {4.0 0.0 2 ------- null}
h -t 0.34232 -s 4 -d 3 -p ack -e 40 -c 0 -i 7 -a 0 -x {4.0 0.0 -1 ------- null}
r -t 0.3476 -s 0 -d 1 -p tcp -e 1540 -c 0 -i 6 -a 0 -x {0.0 4.0 4 ------- null}
+ -t 0.3476 -s 1 -d 3 -p tcp -e 1540 -c 0 -i 6 -a 0 -x {0.0 4.0 4 ------- null}
r -t 0.35264 -s 4 -d 3 -p ack -e 40 -c 0 -i 7 -a 0 -x {4.0 0.0 2 ------- null}
+ -t 0.35264 -s 3 -d 1 -p ack -e 40 -c 0 -i 7 -a 0 -x {4.0 0.0 2 ------- null}
- -t 0.35264 -s 3 -d 1 -p ack -e 40 -c 0 -i 7 -a 0 -x {4.0 0.0 2 ------- null}
h -t 0.35264 -s 3 -d 1 -p ack -e 40 -c 0 -i 7 -a 0 -x {4.0 0.0 -1 ------- null}
r -t 0.36424 -s 3 -d 1 -p ack -e 40 -c 0 -i 7 -a 0 -x {4.0 0.0 2 ------- null}
+ -t 0.36424 -s 1 -d 0 -p ack -e 40 -c 0 -i 7 -a 0 -x {4.0 0.0 2 ------- null}
- -t 0.36424 -s 1 -d 0 -p ack -e 40 -c 0 -i 7 -a 0 -x {4.0 0.0 2 ------- null}
h -t 0.36424 -s 1 -d 0 -p ack -e 40 -c 0 -i 7 -a 0 -x {4.0 0.0 -1 ------- null}
r -t 0.37456 -s 1 -d 0 -p ack -e 40 -c 0 -i 7 -a 0 -x {4.0 0.0 2 ------- null}
+ -t 0.37456 -s 0 -d 1 -p tcp -e 1540 -c 0 -i 8 -a 0 -x {0.0 4.0 5 ------- null}
- -t 0.37456 -s 0 -d 1 -p tcp -e 1540 -c 0 -i 8 -a 0 -x {0.0 4.0 5 ------- null}
h -t 0.37456 -s 0 -d 1 -p tcp -e 1540 -c 0 -i 8 -a 0 -x {0.0 4.0 -1 ------- null}
+ -t 0.37456 -s 0 -d 1 -p tcp -e 1540 -c 0 -i 9 -a 0 -x {0.0 4.0 6 ------- null}
- -t 0.38688 -s 0 -d 1 -p tcp -e 1540 -c 0 -i 9 -a 0 -x {0.0 4.0 6 ------- null}
h -t 0.38688 -s 0 -d 1 -p tcp -e 1540 -c 0 -i 9 -a 0 -x {0.0 4.0 -1 ------- null}
- -t 0.39688 -s 1 -d 3 -p tcp -e 1540 -c 0 -i 6 -a 0 -x {0.0 4.0 4 ------- null}
h -t 0.39688 -s 1 -d 3 -p tcp -e 1540 -c 0 -i 6 -a 0 -x {0.0 4.0 -1 ------- null}
r -t 0.39688 -s 0 -d 1 -p tcp -e 1540 -c 0 -i 8 -a 0 -x {0.0 4.0 5 ------- null}
+ -t 0.39688 -s 1 -d 3 -p tcp -e 1540 -c 0 -i 8 -a 0 -x {0.0 4.0 5 ------- null}
r -t 0.40688 -s 1 -d 3 -p tcp -e 1540 -c 0 -i 5 -a 0 -x {0.0 4.0 3 ------- null}
+ -t 0.40688 -s 3 -d 4 -p tcp -e 1540 -c 0 -i 5 -a 0 -x {0.0 4.0 3 ------- null}
- -t 0.40688 -s 3 -d 4 -p tcp -e 1540 -c 0 -i 5 -a 0 -x {0.0 4.0 3 ------- null}
h -t 0.40688 -s 3 -d 4 -p tcp -e 1540 -c 0 -i 5 -a 0 -x {0.0 4.0 -1 ------- null}
r -t 0.4092 -s 0 -d 1 -p tcp -e 1540 -c 0 -i 9 -a 0 -x {0.0 4.0 6 ------- null}
+ -t 0.4092 -s 1 -d 3 -p tcp -e 1540 -c 0 -i 9 -a 0 -x {0.0 4.0 6 ------- null}
r -t 0.4292 -s 3 -d 4 -p tcp -e 1540 -c 0 -i 5 -a 0 -x {0.0 4.0 3 ------- null}
+ -t 0.4292 -s 4 -d 3 -p ack -e 40 -c 0 -i 10 -a 0 -x {4.0 0.0 3 ------- null}
- -t 0.4292 -s 4 -d 3 -p ack -e 40 -c 0 -i 10 -a 0 -x {4.0 0.0 3 ------- null}
h -t 0.4292 -s 4 -d 3 -p ack -e 40 -c 0 -i 10 -a 0 -x {4.0 0.0 -1 ------- null}
r -t 0.43952 -s 4 -d 3 -p ack -e 40 -c 0 -i 10 -a 0 -x {4.0 0.0 3 ------- null}
+ -t 0.43952 -s 3 -d 1 -p ack -e 40 -c 0 -i 10 -a 0 -x {4.0 0.0 3 ------- null}
- -t 0.43952 -s 3 -d 1 -p ack -e 40 -c 0 -i 10 -a 0 -x {4.0 0.0 3 ------- null}
h -t 0.43952 -s 3 -d 1 -p ack -e 40 -c 0 -i 10 -a 0 -x {4.0 0.0 -1 ------- null}
r -t 0.45112 -s 3 -d 1 -p ack -e 40 -c 0 -i 10 -a 0 -x {4.0 0.0 3 ------- null}
+ -t 0.45112 -s 1 -d 0 -p ack -e 40 -c 0 -i 10 -a 0 -x {4.0 0.0 3 ------- null}
- -t 0.45112 -s 1 -d 0 -p ack -e 40 -c 0 -i 10 -a 0 -x {4.0 0.0 3 ------- null}
h -t 0.45112 -s 1 -d 0 -p ack -e 40 -c 0 -i 10 -a 0 -x {4.0 0.0 -1 ------- null}
- -t 0.45848 -s 1 -d 3 -p tcp -e 1540 -c 0 -i 8 -a 0 -x {0.0 4.0 5 ------- null}
h -t 0.45848 -s 1 -d 3 -p tcp -e 1540 -c 0 -i 8 -a 0 -x {0.0 4.0 -1 ------- null}
r -t 0.46144 -s 1 -d 0 -p ack -e 40 -c 0 -i 10 -a 0 -x {4.0 0.0 3 ------- null}
+ -t 0.46144 -s 0 -d 1 -p tcp -e 1540 -c 0 -i 11 -a 0 -x {0.0 4.0 7 ------- null}
- -t 0.46144 -s 0 -d 1 -p tcp -e 1540 -c 0 -i 11 -a 0 -x {0.0 4.0 7 ------- null}
h -t 0.46144 -s 0 -d 1 -p tcp -e 1540 -c 0 -i 11 -a 0 -x {0.0 4.0 -1 ------- null}
+ -t 0.46144 -s 0 -d 1 -p tcp -e 1540 -c 0 -i 12 -a 0 -x {0.0 4.0 8 ------- null}
r -t 0.46848 -s 1 -d 3 -p tcp -e 1540 -c 0 -i 6 -a 0 -x {0.0 4.0 4 ------- null}
+ -t 0.46848 -s 3 -d 4 -p tcp -e 1540 -c 0 -i 6 -a 0 -x {0.0 4.0 4 ------- null}
- -t 0.46848 -s 3 -d 4 -p tcp -e 1540 -c 0 -i 6 -a 0 -x {0.0 4.0 4 ------- null}
h -t 0.46848 -s 3 -d 4 -p tcp -e 1540 -c 0 -i 6 -a 0 -x {0.0 4.0 -1 ------- null}
- -t 0.47376 -s 0 -d 1 -p tcp -e 1540 -c 0 -i 12 -a 0 -x {0.0 4.0 8 ------- null}
h -t 0.47376 -s 0 -d 1 -p tcp -e 1540 -c 0 -i 12 -a 0 -x {0.0 4.0 -1 ------- null}
r -t 0.48376 -s 0 -d 1 -p tcp -e 1540 -c 0 -i 11 -a 0 -x {0.0 4.0 7 ------- null}
+ -t 0.48376 -s 1 -d 3 -p tcp -e 1540 -c 0 -i 11 -a 0 -x {0.0 4.0 7 ------- null}
r -t 0.4908 -s 3 -d 4 -p tcp -e 1540 -c 0 -i 6 -a 0 -x {0.0 4.0 4 ------- null}
+ -t 0.4908 -s 4 -d 3 -p ack -e 40 -c 0 -i 13 -a 0 -x {4.0 0.0 4 ------- null}
- -t 0.4908 -s 4 -d 3 -p ack -e 40 -c 0 -i 13 -a 0 -x {4.0 0.0 4 ------- null}
h -t 0.4908 -s 4 -d 3 -p ack -e 40 -c 0 -i 13 -a 0 -x {4.0 0.0 -1 ------- null}
r -t 0.49608 -s 0 -d 1 -p tcp -e 1540 -c 0 -i 12 -a 0 -x {0.0 4.0 8 ------- null}
+ -t 0.49608 -s 1 -d 3 -p tcp -e 1540 -c 0 -i 12 -a 0 -x {0.0 4.0 8 ------- null}
r -t 0.50112 -s 4 -d 3 -p ack -e 40 -c 0 -i 13 -a 0 -x {4.0 0.0 4 ------- null}
+ -t 0.50112 -s 3 -d 1 -p ack -e 40 -c 0 -i 13 -a 0 -x {4.0 0.0 4 ------- null}
- -t 0.50112 -s 3 -d 1 -p ack -e 40 -c 0 -i 13 -a 0 -x {4.0 0.0 4 ------- null}
h -t 0.50112 -s 3 -d 1 -p ack -e 40 -c 0 -i 13 -a 0 -x {4.0 0.0 -1 ------- null}
r -t 0.51272 -s 3 -d 1 -p ack -e 40 -c 0 -i 13 -a 0 -x {4.0 0.0 4 ------- null}
+ -t 0.51272 -s 1 -d 0 -p ack -e 40 -c 0 -i 13 -a 0 -x {4.0 0.0 4 ------- null}
- -t 0.51272 -s 1 -d 0 -p ack -e 40 -c 0 -i 13 -a 0 -x {4.0 0.0 4 ------- null}
h -t 0.51272 -s 1 -d 0 -p ack -e 40 -c 0 -i 13 -a 0 -x {4.0 0.0 -1 ------- null}
- -t 0.52008 -s 1 -d 3 -p tcp -e 1540 -c 0 -i 9 -a 0 -x {0.0 4.0 6 ------- null}
h -t 0.52008 -s 1 -d 3 -p tcp -e 1540 -c 0 -i 9 -a 0 -x {0.0 4.0 -1 ------- null}
r -t 0.52304 -s 1 -d 0 -p ack -e 40 -c 0 -i 13 -a 0 -x {4.0 0.0 4 ------- null}
+ -t 0.52304 -s 0 -d 1 -p tcp -e 1540 -c 0 -i 14 -a 0 -x {0.0 4.0 9 ------- null}
- -t 0.52304 -s 0 -d 1 -p tcp -e 1540 -c 0 -i 14 -a 0 -x {0.0 4.0 9 ------- null}
h -t 0.52304 -s 0 -d 1 -p tcp -e 1540 -c 0 -i 14 -a 0 -x {0.0 4.0 -1 ------- null}
+ -t 0.52304 -s 0 -d 1 -p tcp -e 1540 -c 0 -i 15 -a 0 -x {0.0 4.0 10 ------- null}
r -t 0.53008 -s 1 -d 3 -p tcp -e 1540 -c 0 -i 8 -a 0 -x {0.0 4.0 5 ------- null}
+ -t 0.53008 -s 3 -d 4 -p tcp -e 1540 -c 0 -i 8 -a 0 -x {0.0 4.0 5 ------- null}
- -t 0.53008 -s 3 -d 4 -p tcp -e 1540 -c 0 -i 8 -a 0 -x {0.0 4.0 5 ------- null}
h -t 0.53008 -s 3 -d 4 -p tcp -e 1540 -c 0 -i 8 -a 0 -x {0.0 4.0 -1 ------- null}
- -t 0.53536 -s 0 -d 1 -p tcp -e 1540 -c 0 -i 15 -a 0 -x {0.0 4.0 10 ------- null}
h -t 0.53536 -s 0 -d 1 -p tcp -e 1540 -c 0 -i 15 -a 0 -x {0.0 4.0 -1 ------- null}
r -t 0.54536 -s 0 -d 1 -p tcp -e 1540 -c 0 -i 14 -a 0 -x {0.0 4.0 9 ------- null}
+ -t 0.54536 -s 1 -d 3 -p tcp -e 1540 -c 0 -i 14 -a 0 -x {0.0 4.0 9 ------- null}
r -t 0.5524 -s 3 -d 4 -p tcp -e 1540 -c 0 -i 8 -a 0 -x {0.0 4.0 5 ------- null}
+ -t 0.5524 -s 4 -d 3 -p ack -e 40 -c 0 -i 16 -a 0 -x {4.0 0.0 5 ------- null}
- -t 0.5524 -s 4 -d 3 -p ack -e 40 -c 0 -i 16 -a 0 -x {4.0 0.0 5 ------- null}
h -t 0.5524 -s 4 -d 3 -p ack -e 40 -c 0 -i 16 -a 0 -x {4.0 0.0 -1 ------- null}
r -t 0.55768 -s 0 -d 1 -p tcp -e 1540 -c 0 -i 15 -a 0 -x {0.0 4.0 10 ------- null}
+ -t 0.55768 -s 1 -d 3 -p tcp -e 1540 -c 0 -i 15 -a 0 -x {0.0 4.0 10 ------- null}
r -t 0.56272 -s 4 -d 3 -p ack -e 40 -c 0 -i 16 -a 0 -x {4.0 0.0 5 ------- null}
+ -t 0.56272 -s 3 -d 1 -p ack -e 40 -c 0 -i 16 -a 0 -x {4.0 0.0 5 ------- null}
- -t 0.56272 -s 3 -d 1 -p ack -e 40 -c 0 -i 16 -a 0 -x {4.0 0.0 5 ------- null}
h -t 0.56272 -s 3 -d 1 -p ack -e 40 -c 0 -i 16 -a 0 -x {4.0 0.0 -1 ------- null}
r -t 0.57432 -s 3 -d 1 -p ack -e 40 -c 0 -i 16 -a 0 -x {4.0 0.0 5 ------- null}
+ -t 0.57432 -s 1 -d 0 -p ack -e 40 -c 0 -i 16 -a 0 -x {4.0 0.0 5 ------- null}
- -t 0.57432 -s 1 -d 0 -p ack -e 40 -c 0 -i 16 -a 0 -x {4.0 0.0 5 ------- null}
h -t 0.57432 -s 1 -d 0 -p ack -e 40 -c 0 -i 16 -a 0 -x {4.0 0.0 -1 ------- null}
- -t 0.58168 -s 1 -d 3 -p tcp -e 1540 -c 0 -i 11 -a 0 -x {0.0 4.0 7 ------- null}
h -t 0.58168 -s 1 -d 3 -p tcp -e 1540 -c 0 -i 11 -a 0 -x {0.0 4.0 -1 ------- null}
r -t 0.58464 -s 1 -d 0 -p ack -e 40 -c 0 -i 16 -a 0 -x {4.0 0.0 5 ------- null}
+ -t 0.58464 -s 0 -d 1 -p tcp -e 1540 -c 0 -i 17 -a 0 -x {0.0 4.0 11 ------- null}
- -t 0.58464 -s 0 -d 1 -p tcp -e 1540 -c 0 -i 17 -a 0 -x {0.0 4.0 11 ------- null}
h -t 0.58464 -s 0 -d 1 -p tcp -e 1540 -c 0 -i 17 -a 0 -x {0.0 4.0 -1 ------- null}
+ -t 0.58464 -s 0 -d 1 -p tcp -e 1540 -c 0 -i 18 -a 0 -x {0.0 4.0 12 ------- null}
r -t 0.59168 -s 1 -d 3 -p tcp -e 1540 -c 0 -i 9 -a 0 -x {0.0 4.0 6 ------- null}
+ -t 0.59168 -s 3 -d 4 -p tcp -e 1540 -c 0 -i 9 -a 0 -x {0.0 4.0 6 ------- null}
- -t 0.59168 -s 3 -d 4 -p tcp -e 1540 -c 0 -i 9 -a 0 -x {0.0 4.0 6 ------- null}
h -t 0.59168 -s 3 -d 4 -p tcp -e 1540 -c 0 -i 9 -a 0 -x {0.0 4.0 -1 ------- null}
- -t 0.59696 -s 0 -d 1 -p tcp -e 1540 -c 0 -i 18 -a 0 -x {0.0 4.0 12 ------- null}
h -t 0.59696 -s 0 -d 1 -p tcp -e 1540 -c 0 -i 18 -a 0 -x {0.0 4.0 -1 ------- null}
r -t 0.60696 -s 0 -d 1 -p tcp -e 1540 -c 0 -i 17 -a 0 -x {0.0 4.0 11 ------- null}
+ -t 0.60696 -s 1 -d 3 -p tcp -e 1540 -c 0 -i 17 -a 0 -x {0.0 4.0 11 ------- null}
r -t 0.614 -s 3 -d 4 -p tcp -e 1540 -c 0 -i 9 -a 0 -x {0.0 4.0 6 ------- null}
+ -t 0.614 -s 4 -d 3 -p ack -e 40 -c 0 -i 19 -a 0 -x {4.0 0.0 6 ------- null}
- -t 0.614 -s 4 -d 3 -p ack -e 40 -c 0 -i 19 -a 0 -x {4.0 0.0 6 ------- null}
h -t 0.614 -s 4 -d 3 -p ack -e 40 -c 0 -i 19 -a 0 -x {4.0 0.0 -1 ------- null}
r -t 0.61928 -s 0 -d 1 -p tcp -e 1540 -c 0 -i 18 -a 0 -x {0.0 4.0 12 ------- null}
+ -t 0.61928 -s 1 -d 3 -p tcp -e 1540 -c 0 -i 18 -a 0 -x {0.0 4.0 12 ------- null}
r -t 0.62432 -s 4 -d 3 -p ack -e 40 -c 0 -i 19 -a 0 -x {4.0 0.0 6 ------- null}
+ -t 0.62432 -s 3 -d 1 -p ack -e 40 -c 0 -i 19 -a 0 -x {4.0 0.0 6 ------- null}
- -t 0.62432 -s 3 -d 1 -p ack -e 40 -c 0 -i 19 -a 0 -x {4.0 0.0 6 ------- null}
h -t 0.62432 -s 3 -d 1 -p ack -e 40 -c 0 -i 19 -a 0 -x {4.0 0.0 -1 ------- null}
r -t 0.63592 -s 3 -d 1 -p ack -e 40 -c 0 -i 19 -a 0 -x {4.0 0.0 6 ------- null}
+ -t 0.63592 -s 1 -d 0 -p ack -e 40 -c 0 -i 19 -a 0 -x {4.0 0.0 6 ------- null}
- -t 0.63592 -s 1 -d 0 -p ack -e 40 -c 0 -i 19 -a 0 -x {4.0 0.0 6 ------- null}
h -t 0.63592 -s 1 -d 0 -p ack -e 40 -c 0 -i 19 -a 0 -x {4.0 0.0 -1 ------- null}
- -t 0.64328 -s 1 -d 3 -p tcp -e 1540 -c 0 -i 12 -a 0 -x {0.0 4.0 8 ------- null}
h -t 0.64328 -s 1 -d 3 -p tcp -e 1540 -c 0 -i 12 -a 0 -x {0.0 4.0 -1 ------- null}
r -t 0.64624 -s 1 -d 0 -p ack -e 40 -c 0 -i 19 -a 0 -x {4.0 0.0 6 ------- null}
+ -t 0.64624 -s 0 -d 1 -p tcp -e 1540 -c 0 -i 20 -a 0 -x {0.0 4.0 13 ------- null}
- -t 0.64624 -s 0 -d 1 -p tcp -e 1540 -c 0 -i 20 -a 0 -x {0.0 4.0 13 ------- null}
h -t 0.64624 -s 0 -d 1 -p tcp -e 1540 -c 0 -i 20 -a 0 -x {0.0 4.0 -1 ------- null}
+ -t 0.64624 -s 0 -d 1 -p tcp -e 1540 -c 0 -i 21 -a 0 -x {0.0 4.0 14 ------- null}
r -t 0.65328 -s 1 -d 3 -p tcp -e 1540 -c 0 -i 11 -a 0 -x {0.0 4.0 7 ------- null}
+ -t 0.65328 -s 3 -d 4 -p tcp -e 1540 -c 0 -i 11 -a 0 -x {0.0 4.0 7 ------- null}
- -t 0.65328 -s 3 -d 4 -p tcp -e 1540 -c 0 -i 11 -a 0 -x {0.0 4.0 7 ------- null}
h -t 0.65328 -s 3 -d 4 -p tcp -e 1540 -c 0 -i 11 -a 0 -x {0.0 4.0 -1 ------- null}
- -t 0.65856 -s 0 -d 1 -p tcp -e 1540 -c 0 -i 21 -a 0 -x {0.0 4.0 14 ------- null}
h -t 0.65856 -s 0 -d 1 -p tcp -e 1540 -c 0 -i 21 -a 0 -x {0.0 4.0 -1 ------- null}
r -t 0.66856 -s 0 -d 1 -p tcp -e 1540 -c 0 -i 20 -a 0 -x {0.0 4.0 13 ------- null}
+ -t 0.66856 -s 1 -d 3 -p tcp -e 1540 -c 0 -i 20 -a 0 -x {0.0 4.0 13 ------- null}
r -t 0.6756 -s 3 -d 4 -p tcp -e 1540 -c 0 -i 11 -a 0 -x {0.0 4.0 7 ------- null}
+ -t 0.6756 -s 4 -d 3 -p ack -e 40 -c 0 -i 22 -a 0 -x {4.0 0.0 7 ------- null}
- -t 0.6756 -s 4 -d 3 -p ack -e 40 -c 0 -i 22 -a 0 -x {4.0 0.0 7 ------- null}
h -t 0.6756 -s 4 -d 3 -p ack -e 40 -c 0 -i 22 -a 0 -x {4.0 0.0 -1 ------- null}
r -t 0.68088 -s 0 -d 1 -p tcp -e 1540 -c 0 -i 21 -a 0 -x {0.0 4.0 14 ------- null}
+ -t 0.68088 -s 1 -d 3 -p tcp -e 1540 -c 0 -i 21 -a 0 -x {0.0 4.0 14 ------- null}
r -t 0.68592 -s 4 -d 3 -p ack -e 40 -c 0 -i 22 -a 0 -x {4.0 0.0 7 ------- null}
+ -t 0.68592 -s 3 -d 1 -p ack -e 40 -c 0 -i 22 -a 0 -x {4.0 0.0 7 ------- null}
- -t 0.68592 -s 3 -d 1 -p ack -e 40 -c 0 -i 22 -a 0 -x {4.0 0.0 7 ------- null}
h -t 0.68592 -s 3 -d 1 -p ack -e 40 -c 0 -i 22 -a 0 -x {4.0 0.0 -1 ------- null}
r -t 0.69752 -s 3 -d 1 -p ack -e 40 -c 0 -i 22 -a 0 -x {4.0 0.0 7 ------- null}
+ -t 0.69752 -s 1 -d 0 -p ack -e 40 -c 0 -i 22 -a 0 -x {4.0 0.0 7 ------- null}
- -t 0.69752 -s 1 -d 0 -p ack -e 40 -c 0 -i 22 -a 0 -x {4.0 0.0 7 ------- null}
h -t 0.69752 -s 1 -d 0 -p ack -e 40 -c 0 -i 22 -a 0 -x {4.0 0.0 -1 ------- null}
- -t 0.70488 -s 1 -d 3 -p tcp -e 1540 -c 0 -i 14 -a 0 -x {0.0 4.0 9 ------- null}
h -t 0.70488 -s 1 -d 3 -p tcp -e 1540 -c 0 -i 14 -a 0 -x {0.0 4.0 -1 ------- null}
r -t 0.70784 -s 1 -d 0 -p ack -e 40 -c 0 -i 22 -a 0 -x {4.0 0.0 7 ------- null}
+ -t 0.70784 -s 0 -d 1 -p tcp -e 1540 -c 0 -i 23 -a 0 -x {0.0 4.0 15 ------- null}
- -t 0.70784 -s 0 -d 1 -p tcp -e 1540 -c 0 -i 23 -a 0 -x {0.0 4.0 15 ------- null}
h -t 0.70784 -s 0 -d 1 -p tcp -e 1540 -c 0 -i 23 -a 0 -x {0.0 4.0 -1 ------- null}
+ -t 0.70784 -s 0 -d 1 -p tcp -e 1540 -c 0 -i 24 -a 0 -x {0.0 4.0 16 ------- null}
r -t 0.71488 -s 1 -d 3 -p tcp -e 1540 -c 0 -i 12 -a 0 -x {0.0 4.0 8 ------- null}
+ -t 0.71488 -s 3 -d 4 -p tcp -e 1540 -c 0 -i 12 -a 0 -x {0.0 4.0 8 ------- null}
- -t 0.71488 -s 3 -d 4 -p tcp -e 1540 -c 0 -i 12 -a 0 -x {0.0 4.0 8 ------- null}
h -t 0.71488 -s 3 -d 4 -p tcp -e 1540 -c 0 -i 12 -a 0 -x {0.0 4.0 -1 ------- null}
- -t 0.72016 -s 0 -d 1 -p tcp -e 1540 -c 0 -i 24 -a 0 -x {0.0 4.0 16 ------- null}
h -t 0.72016 -s 0 -d 1 -p tcp -e 1540 -c 0 -i 24 -a 0 -x {0.0 4.0 -1 ------- null}
r -t 0.73016 -s 0 -d 1 -p tcp -e 1540 -c 0 -i 23 -a 0 -x {0.0 4.0 15 ------- null}
+ -t 0.73016 -s 1 -d 3 -p tcp -e 1540 -c 0 -i 23 -a 0 -x {0.0 4.0 15 ------- null}
r -t 0.7372 -s 3 -d 4 -p tcp -e 1540 -c 0 -i 12 -a 0 -x {0.0 4.0 8 ------- null}
+ -t 0.7372 -s 4 -d 3 -p ack -e 40 -c 0 -i 25 -a 0 -x {4.0 0.0 8 ------- null}
- -t 0.7372 -s 4 -d 3 -p ack -e 40 -c 0 -i 25 -a 0 -x {4.0 0.0 8 ------- null}
h -t 0.7372 -s 4 -d 3 -p ack -e 40 -c 0 -i 25 -a 0 -x {4.0 0.0 -1 ------- null}
r -t 0.74248 -s 0 -d 1 -p tcp -e 1540 -c 0 -i 24 -a 0 -x {0.0 4.0 16 ------- null}
+ -t 0.74248 -s 1 -d 3 -p tcp -e 1540 -c 0 -i 24 -a 0 -x {0.0 4.0 16 ------- null}
r -t 0.74752 -s 4 -d 3 -p ack -e 40 -c 0 -i 25 -a 0 -x {4.0 0.0 8 ------- null}
+ -t 0.74752 -s 3 -d 1 -p ack -e 40 -c 0 -i 25 -a 0 -x {4.0 0.0 8 ------- null}
- -t 0.74752 -s 3 -d 1 -p ack -e 40 -c 0 -i 25 -a 0 -x {4.0 0.0 8 ------- null}
h -t 0.74752 -s 3 -d 1 -p ack -e 40 -c 0 -i 25 -a 0 -x {4.0 0.0 -1 ------- null}
r -t 0.75912 -s 3 -d 1 -p ack -e 40 -c 0 -i 25 -a 0 -x {4.0 0.0 8 ------- null}
+ -t 0.75912 -s 1 -d 0 -p ack -e 40 -c 0 -i 25 -a 0 -x {4.0 0.0 8 ------- null}
- -t 0.75912 -s 1 -d 0 -p ack -e 40 -c 0 -i 25 -a 0 -x {4.0 0.0 8 ------- null}
h -t 0.75912 -s 1 -d 0 -p ack -e 40 -c 0 -i 25 -a 0 -x {4.0 0.0 -1 ------- null}
- -t 0.76648 -s 1 -d 3 -p tcp -e 1540 -c 0 -i 15 -a 0 -x {0.0 4.0 10 ------- null}
h -t 0.76648 -s 1 -d 3 -p tcp -e 1540 -c 0 -i 15 -a 0 -x {0.0 4.0 -1 ------- null}
r -t 0.76944 -s 1 -d 0 -p ack -e 40 -c 0 -i 25 -a 0 -x {4.0 0.0 8 ------- null}
+ -t 0.76944 -s 0 -d 1 -p tcp -e 1540 -c 0 -i 26 -a 0 -x {0.0 4.0 17 ------- null}
- -t 0.76944 -s 0 -d 1 -p tcp -e 1540 -c 0 -i 26 -a 0 -x {0.0 4.0 17 ------- null}
h -t 0.76944 -s 0 -d 1 -p tcp -e 1540 -c 0 -i 26 -a 0 -x {0.0 4.0 -1 ------- null}
+ -t 0.76944 -s 0 -d 1 -p tcp -e 1540 -c 0 -i 27 -a 0 -x {0.0 4.0 18 ------- null}
r -t 0.77648 -s 1 -d 3 -p tcp -e 1540 -c 0 -i 14 -a 0 -x {0.0 4.0 9 ------- null}
+ -t 0.77648 -s 3 -d 4 -p tcp -e 1540 -c 0 -i 14 -a 0 -x {0.0 4.0 9 ------- null}
- -t 0.77648 -s 3 -d 4 -p tcp -e 1540 -c 0 -i 14 -a 0 -x {0.0 4.0 9 ------- null}
h -t 0.77648 -s 3 -d 4 -p tcp -e 1540 -c 0 -i 14 -a 0 -x {0.0 4.0 -1 ------- null}
- -t 0.78176 -s 0 -d 1 -p tcp -e 1540 -c 0 -i 27 -a 0 -x {0.0 4.0 18 ------- null}
h -t 0.78176 -s 0 -d 1 -p tcp -e 1540 -c 0 -i 27 -a 0 -x {0.0 4.0 -1 ------- null}
r -t 0.79176 -s 0 -d 1 -p tcp -e 1540 -c 0 -i 26 -a 0 -x {0.0 4.0 17 ------- null}
+ -t 0.79176 -s 1 -d 3 -p tcp -e 1540 -c 0 -i 26 -a 0 -x {0.0 4.0 17 ------- null}
r -t 0.7988 -s 3 -d 4 -p tcp -e 1540 -c 0 -i 14 -a 0 -x {0.0 4.0 9 ------- null}
+ -t 0.7988 -s 4 -d 3 -p ack -e 40 -c 0 -i 28 -a 0 -x {4.0 0.0 9 ------- null}
- -t 0.7988 -s 4 -d 3 -p ack -e 40 -c 0 -i 28 -a 0 -x {4.0 0.0 9 ------- null}
h -t 0.7988 -s 4 -d 3 -p ack -e 40 -c 0 -i 28 -a 0 -x {4.0 0.0 -1 ------- null}
r -t 0.80408 -s 0 -d 1 -p tcp -e 1540 -c 0 -i 27 -a 0 -x {0.0 4.0 18 ------- null}
+ -t 0.80408 -s 1 -d 3 -p tcp -e 1540 -c 0 -i 27 -a 0 -x {0.0 4.0 18 ------- null}
r -t 0.80912 -s 4 -d 3 -p ack -e 40 -c 0 -i 28 -a 0 -x {4.0 0.0 9 ------- null}
+ -t 0.80912 -s 3 -d 1 -p ack -e 40 -c 0 -i 28 -a 0 -x {4.0 0.0 9 ------- null}
- -t 0.80912 -s 3 -d 1 -p ack -e 40 -c 0 -i 28 -a 0 -x {4.0 0.0 9 ------- null}
h -t 0.80912 -s 3 -d 1 -p ack -e 40 -c 0 -i 28 -a 0 -x {4.0 0.0 -1 ------- null}
r -t 0.82072 -s 3 -d 1 -p ack -e 40 -c 0 -i 28 -a 0 -x {4.0 0.0 9 ------- null}
+ -t 0.82072 -s 1 -d 0 -p ack -e 40 -c 0 -i 28 -a 0 -x {4.0 0.0 9 ------- null}
- -t 0.82072 -s 1 -d 0 -p ack -e 40 -c 0 -i 28 -a 0 -x {4.0 0.0 9 ------- null}
h -t 0.82072 -s 1 -d 0 -p ack -e 40 -c 0 -i 28 -a 0 -x {4.0 0.0 -1 ------- null}
- -t 0.82808 -s 1 -d 3 -p tcp -e 1540 -c 0 -i 17 -a 0 -x {0.0 4.0 11 ------- null}
h -t 0.82808 -s 1 -d 3 -p tcp -e 1540 -c 0 -i 17 -a 0 -x {0.0 4.0 -1 ------- null}
r -t 0.83104 -s 1 -d 0 -p ack -e 40 -c 0 -i 28 -a 0 -x {4.0 0.0 9 ------- null}
+ -t 0.83104 -s 0 -d 1 -p tcp -e 1540 -c 0 -i 29 -a 0 -x {0.0 4.0 19 ------- null}
- -t 0.83104 -s 0 -d 1 -p tcp -e 1540 -c 0 -i 29 -a 0 -x {0.0 4.0 19 ------- null}
h -t 0.83104 -s 0 -d 1 -p tcp -e 1540 -c 0 -i 29 -a 0 -x {0.0 4.0 -1 ------- null}
+ -t 0.83104 -s 0 -d 1 -p tcp -e 1540 -c 0 -i 30 -a 0 -x {0.0 4.0 20 ------- null}
r -t 0.83808 -s 1 -d 3 -p tcp -e 1540 -c 0 -i 15 -a 0 -x {0.0 4.0 10 ------- null}
+ -t 0.83808 -s 3 -d 4 -p tcp -e 1540 -c 0 -i 15 -a 0 -x {0.0 4.0 10 ------- null}
- -t 0.83808 -s 3 -d 4 -p tcp -e 1540 -c 0 -i 15 -a 0 -x {0.0 4.0 10 ------- null}
h -t 0.83808 -s 3 -d 4 -p tcp -e 1540 -c 0 -i 15 -a 0 -x {0.0 4.0 -1 ------- null}
- -t 0.84336 -s 0 -d 1 -p tcp -e 1540 -c 0 -i 30 -a 0 -x {0.0 4.0 20 ------- null}
h -t 0.84336 -s 0 -d 1 -p tcp -e 1540 -c 0 -i 30 -a 0 -x {0.0 4.0 -1 ------- null}
r -t 0.85336 -s 0 -d 1 -p tcp -e 1540 -c 0 -i 29 -a 0 -x {0.0 4.0 19 ------- null}
+ -t 0.85336 -s 1 -d 3 -p tcp -e 1540 -c 0 -i 29 -a 0 -x {0.0 4.0 19 ------- null}
r -t 0.8604 -s 3 -d 4 -p tcp -e 1540 -c 0 -i 15 -a 0 -x {0.0 4.0 10 ------- null}
+ -t 0.8604 -s 4 -d 3 -p ack -e 40 -c 0 -i 31 -a 0 -x {4.0 0.0 10 ------- null}
- -t 0.8604 -s 4 -d 3 -p ack -e 40 -c 0 -i 31 -a 0 -x {4.0 0.0 10 ------- null}
h -t 0.8604 -s 4 -d 3 -p ack -e 40 -c 0 -i 31 -a 0 -x {4.0 0.0 -1 ------- null}
r -t 0.86568 -s 0 -d 1 -p tcp -e 1540 -c 0 -i 30 -a 0 -x {0.0 4.0 20 ------- null}
+ -t 0.86568 -s 1 -d 3 -p tcp -e 1540 -c 0 -i 30 -a 0 -x {0.0 4.0 20 ------- null}
r -t 0.87072 -s 4 -d 3 -p ack -e 40 -c 0 -i 31 -a 0 -x {4.0 0.0 10 ------- null}
+ -t 0.87072 -s 3 -d 1 -p ack -e 40 -c 0 -i 31 -a 0 -x {4.0 0.0 10 ------- null}
- -t 0.87072 -s 3 -d 1 -p ack -e 40 -c 0 -i 31 -a 0 -x {4.0 0.0 10 ------- null}
h -t 0.87072 -s 3 -d 1 -p ack -e 40 -c 0 -i 31 -a 0 -x {4.0 0.0 -1 ------- null}
r -t 0.88232 -s 3 -d 1 -p ack -e 40 -c 0 -i 31 -a 0 -x {4.0 0.0 10 ------- null}
+ -t 0.88232 -s 1 -d 0 -p ack -e 40 -c 0 -i 31 -a 0 -x {4.0 0.0 10 ------- null}
- -t 0.88232 -s 1 -d 0 -p ack -e 40 -c 0 -i 31 -a 0 -x {4.0 0.0 10 ------- null}
h -t 0.88232 -s 1 -d 0 -p ack -e 40 -c 0 -i 31 -a 0 -x {4.0 0.0 -1 ------- null}
- -t 0.88968 -s 1 -d 3 -p tcp -e 1540 -c 0 -i 18 -a 0 -x {0.0 4.0 12 ------- null}
h -t 0.88968 -s 1 -d 3 -p tcp -e 1540 -c 0 -i 18 -a 0 -x {0.0 4.0 -1 ------- null}
r -t 0.89264 -s 1 -d 0 -p ack -e 40 -c 0 -i 31 -a 0 -x {4.0 0.0 10 ------- null}
+ -t 0.89264 -s 0 -d 1 -p tcp -e 1540 -c 0 -i 32 -a 0 -x {0.0 4.0 21 ------- null}
- -t 0.89264 -s 0 -d 1 -p tcp -e 1540 -c 0 -i 32 -a 0 -x {0.0 4.0 21 ------- null}
h -t 0.89264 -s 0 -d 1 -p tcp -e 1540 -c 0 -i 32 -a 0 -x {0.0 4.0 -1 ------- null}
+ -t 0.89264 -s 0 -d 1 -p tcp -e 1540 -c 0 -i 33 -a 0 -x {0.0 4.0 22 ------- null}
r -t 0.89968 -s 1 -d 3 -p tcp -e 1540 -c 0 -i 17 -a 0 -x {0.0 4.0 11 ------- null}
+ -t 0.89968 -s 3 -d 4 -p tcp -e 1540 -c 0 -i 17 -a 0 -x {0.0 4.0 11 ------- null}
- -t 0.89968 -s 3 -d 4 -p tcp -e 1540 -c 0 -i 17 -a 0 -x {0.0 4.0 11 ------- null}
h -t 0.89968 -s 3 -d 4 -p tcp -e 1540 -c 0 -i 17 -a 0 -x {0.0 4.0 -1 ------- null}
- -t 0.90496 -s 0 -d 1 -p tcp -e 1540 -c 0 -i 33 -a 0 -x {0.0 4.0 22 ------- null}
h -t 0.90496 -s 0 -d 1 -p tcp -e 1540 -c 0 -i 33 -a 0 -x {0.0 4.0 -1 ------- null}
r -t 0.91496 -s 0 -d 1 -p tcp -e 1540 -c 0 -i 32 -a 0 -x {0.0 4.0 21 ------- null}
+ -t 0.91496 -s 1 -d 3 -p tcp -e 1540 -c 0 -i 32 -a 0 -x {0.0 4.0 21 ------- null}
r -t 0.922 -s 3 -d 4 -p tcp -e 1540 -c 0 -i 17 -a 0 -x {0.0 4.0 11 ------- null}
+ -t 0.922 -s 4 -d 3 -p ack -e 40 -c 0 -i 34 -a 0 -x {4.0 0.0 11 ------- null}
- -t 0.922 -s 4 -d 3 -p ack -e 40 -c 0 -i 34 -a 0 -x {4.0 0.0 11 ------- null}
h -t 0.922 -s 4 -d 3 -p ack -e 40 -c 0 -i 34 -a 0 -x {4.0 0.0 -1 ------- null}
r -t 0.92728 -s 0 -d 1 -p tcp -e 1540 -c 0 -i 33 -a 0 -x {0.0 4.0 22 ------- null}
+ -t 0.92728 -s 1 -d 3 -p tcp -e 1540 -c 0 -i 33 -a 0 -x {0.0 4.0 22 ------- null}
d -t 0.92728 -s 1 -d 3 -p tcp -e 1540 -c 0 -i 33 -a 0 -x {0.0 4.0 22 ------- null}
r -t 0.93232 -s 4 -d 3 -p ack -e 40 -c 0 -i 34 -a 0 -x {4.0 0.0 11 ------- null}
+ -t 0.93232 -s 3 -d 1 -p ack -e 40 -c 0 -i 34 -a 0 -x {4.0 0.0 11 ------- null}
- -t 0.93232 -s 3 -d 1 -p ack -e 40 -c 0 -i 34 -a 0 -x {4.0 0.0 11 ------- null}
h -t 0.93232 -s 3 -d 1 -p ack -e 40 -c 0 -i 34 -a 0 -x {4.0 0.0 -1 ------- null}
r -t 0.94392 -s 3 -d 1 -p ack -e 40 -c 0 -i 34 -a 0 -x {4.0 0.0 11 ------- null}
+ -t 0.94392 -s 1 -d 0 -p ack -e 40 -c 0 -i 34 -a 0 -x {4.0 0.0 11 ------- null}
- -t 0.94392 -s 1 -d 0 -p ack -e 40 -c 0 -i 34 -a 0 -x {4.0 0.0 11 ------- null}
h -t 0.94392 -s 1 -d 0 -p ack -e 40 -c 0 -i 34 -a 0 -x {4.0 0.0 -1 ------- null}
+ -t 0.950837030647902 -s 2 -d 1 -p udp -e 1500 -c 0 -i 35 -a 0 -x {2.0 5.0 0 ------- null}
- -t 0.950837030647902 -s 2 -d 1 -p udp -e 1500 -c 0 -i 35 -a 0 -x {2.0 5.0 0 ------- null}
h -t 0.950837030647902 -s 2 -d 1 -p udp -e 1500 -c 0 -i 35 -a 0 -x {2.0 5.0 -1 ------- null}
- -t 0.95128 -s 1 -d 3 -p tcp -e 1540 -c 0 -i 20 -a 0 -x {0.0 4.0 13 ------- null}
h -t 0.95128 -s 1 -d 3 -p tcp -e 1540 -c 0 -i 20 -a 0 -x {0.0 4.0 -1 ------- null}
r -t 0.95424 -s 1 -d 0 -p ack -e 40 -c 0 -i 34 -a 0 -x {4.0 0.0 11 ------- null}
+ -t 0.95424 -s 0 -d 1 -p tcp -e 1540 -c 0 -i 36 -a 0 -x {0.0 4.0 23 ------- null}
- -t 0.95424 -s 0 -d 1 -p tcp -e 1540 -c 0 -i 36 -a 0 -x {0.0 4.0 23 ------- null}
h -t 0.95424 -s 0 -d 1 -p tcp -e 1540 -c 0 -i 36 -a 0 -x {0.0 4.0 -1 ------- null}
+ -t 0.95424 -s 0 -d 1 -p tcp -e 1540 -c 0 -i 37 -a 0 -x {0.0 4.0 24 ------- null}
r -t 0.96128 -s 1 -d 3 -p tcp -e 1540 -c 0 -i 18 -a 0 -x {0.0 4.0 12 ------- null}
+ -t 0.96128 -s 3 -d 4 -p tcp -e 1540 -c 0 -i 18 -a 0 -x {0.0 4.0 12 ------- null}
- -t 0.96128 -s 3 -d 4 -p tcp -e 1540 -c 0 -i 18 -a 0 -x {0.0 4.0 12 ------- null}
h -t 0.96128 -s 3 -d 4 -p tcp -e 1540 -c 0 -i 18 -a 0 -x {0.0 4.0 -1 ------- null}
- -t 0.96656 -s 0 -d 1 -p tcp -e 1540 -c 0 -i 37 -a 0 -x {0.0 4.0 24 ------- null}
h -t 0.96656 -s 0 -d 1 -p tcp -e 1540 -c 0 -i 37 -a 0 -x {0.0 4.0 -1 ------- null}