+ 0.1 0 1 tcp 40 ------- 0 0.0 4.0 0 0
- 0.1 0 1 tcp 40 ------- 0 0.0 4.0 0 0
r 0.11032 0 1 tcp 40 ------- 0 0.0 4.0 0 0
+ 0.11032 1 3 tcp 40 ------- 0 0.0 4.0 0 0
- 0.11032 1 3 tcp 40 ------- 0 0.0 4.0 0 0
r 0.12192 1 3 tcp 40 ------- 0 0.0 4.0 0 0
+ 0.12192 3 4 tcp 40 ------- 0 0.0 4.0 0 0
- 0.12192 3 4 tcp 40 ------- 0 0.0 4.0 0 0
r 0.13224 3 4 tcp 40 ------- 0 0.0 4.0 0 0
+ 0.13224 4 3 ack 40 ------- 0 4.0 0.0 0 1
- 0.13224 4 3 ack 40 ------- 0 4.0 0.0 0 1
r 0.14256 4 3 ack 40 ------- 0 4.0 0.0 0 1
+ 0.14256 3 1 ack 40 ------- 0 4.0 0.0 0 1
- 0.14256 3 1 ack 40 ------- 0 4.0 0.0 0 1
r 0.15416 3 1 ack 40 ------- 0 4.0 0.0 0 1
+ 0.15416 1 0 ack 40 ------- 0 4.0 0.0 0 1
- 0.15416 1 0 ack 40 ------- 0 4.0 0.0 0 1
r 0.16448 1 0 ack 40 ------- 0 4.0 0.0 0 1
+ 0.16448 0 1 tcp 1540 ------- 0 0.0 4.0 1 2
- 0.16448 0 1 tcp 1540 ------- 0 0.0 4.0 1 2
+ 0.16448 0 1 tcp 1540 ------- 0 0.0 4.0 2 3
- 0.1768 0 1 tcp 1540 ------- 0 0.0 4.0 2 3
r 0.1868 0 1 tcp 1540 ------- 0 0.0 4.0 1 2
+ 0.1868 1 3 tcp 1540 ------- 0 0.0 4.0 1 2
- 0.1868 1 3 tcp 1540 ------- 0 0.0 4.0 1 2
r 0.19912 0 1 tcp 1540 ------- 0 0.0 4.0 2 3
+ 0.19912 1 3 tcp 1540 ------- 0 0.0 4.0 2 3
- 0.2484 1 3 tcp 1540 ------- 0 0.0 4.0 2 3
r 0.2584 1 3 tcp 1540 ------- 0 0.0 4.0 1 2
+ 0.2584 3 4 tcp 1540 ------- 0 0.0 4.0 1 2
- 0.2584 3 4 tcp 1540 ------- 0 0.0 4.0 1 2
r 0.28072 3 4 tcp 1540 ------- 0 0.0 4.0 1 2
+ 0.28072 4 3 ack 40 ------- 0 4.0 0.0 1 4
- 0.28072 4 3 ack 40 ------- 0 4.0 0.0 1 4
r 0.29104 4 3 ack 40 ------- 0 4.0 0.0 1 4
+ 0.29104 3 1 ack 40 ------- 0 4.0 0.0 1 4
- 0.29104 3 1 ack 40 ------- 0 4.0 0.0 1 4
r 0.30264 3 1 ack 40 ------- 0 4.0 0.0 1 4
+ 0.30264 1 0 ack 40 ------- 0 4.0 0.0 1 4
- 0.30264 1 0 ack 40 ------- 0 4.0 0.0 1 4
r 0.31296 1 0 ack 40 ------- 0 4.0 0.0 1 4
+ 0.31296 0 1 tcp 1540 ------- 0 0.0 4.0 3 5
- 0.31296 0 1 tcp 1540 ------- 0 0.0 4.0 3 5
+ 0.31296 0 1 tcp 1540 ------- 0 0.0 4.0 4 6
r 0.32 1 3 tcp 1540 ------- 0 0.0 4.0 2 3
+ 0.32 3 4 tcp 1540 ------- 0 0.0 4.0 2 3
- 0.32 3 4 tcp 1540 ------- 0 0.0 4.0 2 3
- 0.32528 0 1 tcp 1540 ------- 0 0.0 4.0 4 6
r 0.33528 0 1 tcp 1540 ------- 0 0.0 4.0 3 5
+ 0.33528 1 3 tcp 1540 ------- 0 0.0 4.0 3 5
- 0.33528 1 3 tcp 1540 ------- 0 0.0 4.0 3 5
r 0.34232 3 4 tcp 1540 ------- 0 0.0 4.0 2 3
+ 0.34232 4 3 ack 40 ------- 0 4.0 0.0 2 7
- 0.34232 4 3 ack 40 ------- 0 4.0 0.0 2 7
r 0.3476 0 1 tcp 1540 ------- 0 0.0 4.0 4 6
+ 0.3476 1 3 tcp 1540 ------- 0 0.0 4.0 4 6
r 0.35264 4 3 ack 40 ------- 0 4.0 0.0 2 7
+ 0.35264 3 1 ack 40 ------- 0 4.0 0.0 2 7
- 0.35264 3 1 ack 40 ------- 0 4.0 0.0 2 7
r 0.36424 3 1 ack 40 ------- 0 4.0 0.0 2 7
+ 0.36424 1 0 ack 40 ------- 0 4.0 0.0 2 7
- 0.36424 1 0 ack 40 ------- 0 4.0 0.0 2 7
r 0.37456 1 0 ack 40 ------- 0 4.0 0.0 2 7
+ 0.37456 0 1 tcp 1540 ------- 0 0.0 4.0 5 8
- 0.37456 0 1 tcp 1540 ------- 0 0.0 4.0 5 8
+ 0.37456 0 1 tcp 1540 ------- 0 0.0 4.0 6 9
- 0.38688 0 1 tcp 1540 ------- 0 0.0 4.0 6 9
- 0.39688 1 3 tcp 1540 ------- 0 0.0 4.0 4 6
r 0.39688 0 1 tcp 1540 ------- 0 0.0 4.0 5 8
+ 0.39688 1 3 tcp 1540 ------- 0 0.0 4.0 5 8
r 0.40688 1 3 tcp 1540 ------- 0 0.0 4.0 3 5
+ 0.40688 3 4 tcp 1540 ------- 0 0.0 4.0 3 5
- 0.40688 3 4 tcp 1540 ------- 0 0.0 4.0 3 5
r 0.4092 0 1 tcp 1540 ------- 0 0.0 4.0 6 9
+ 0.4092 1 3 tcp 1540 ------- 0 0.0 4.0 6 9
r 0.4292 3 4 tcp 1540 ------- 0 0.0 4.0 3 5
+ 0.4292 4 3 ack 40 ------- 0 4.0 0.0 3 10
- 0.4292 4 3 ack 40 ------- 0 4.0 0.0 3 10
r 0.43952 4 3 ack 40 ------- 0 4.0 0.0 3 10
+ 0.43952 3 1 ack 40 ------- 0 4.0 0.0 3 10
- 0.43952 3 1 ack 40 ------- 0 4.0 0.0 3 10
r 0.45112 3 1 ack 40 ------- 0 4.0 0.0 3 10
+ 0.45112 1 0 ack 40 ------- 0 4.0 0.0 3 10
- 0.45112 1 0 ack 40 ------- 0 4.0 0.0 3 10
- 0.45848 1 3 tcp 1540 ------- 0 0.0 4.0 5 8
r 0.46144 1 0 ack 40 ------- 0 4.0 0.0 3 10
+ 0.46144 0 1 tcp 1540 ------- 0 0.0 4.0 7 11
- 0.46144 0 1 tcp 1540 ------- 0 0.0 4.0 7 11
+ 0.46144 0 1 tcp 1540 ------- 0 0.0 4.0 8 12
r 0.46848 1 3 tcp 1540 ------- 0 0.0 4.0 4 6
+ 0.46848 3 4 tcp 1540 ------- 0 0.0 4.0 4 6
- 0.46848 3 4 tcp 1540 ------- 0 0.0 4.0 4 6
- 0.47376 0 1 tcp 1540 ------- 0 0.0 4.0 8 12
r 0.48376 0 1 tcp 1540 ------- 0 0.0 4.0 7 11
+ 0.48376 1 3 tcp 1540 ------- 0 0.0 4.0 7 11
r 0.4908 3 4 tcp 1540 ------- 0 0.0 4.0 4 6
+ 0.4908 4 3 ack 40 ------- 0 4.0 0.0 4 13
- 0.4908 4 3 ack 40 ------- 0 4.0 0.0 4 13
r 0.49608 0 1 tcp 1540 ------- 0 0.0 4.0 8 12
+ 0.49608 1 3 tcp 1540 ------- 0 0.0 4.0 8 12
r 0.50112 4 3 ack 40 ------- 0 4.0 0.0 4 13
+ 0.50112 3 1 ack 40 ------- 0 4.0 0.0 4 13
- 0.50112 3 1 ack 40 ------- 0 4.0 0.0 4 13
r 0.51272 3 1 ack 40 ------- 0 4.0 0.0 4 13
+ 0.51272 1 0 ack 40 ------- 0 4.0 0.0 4 13
- 0.51272 1 0 ack 40 ------- 0 4.0 0.0 4 13
- 0.52008 1 3 tcp 1540 ------- 0 0.0 4.0 6 9
r 0.52304 1 0 ack 40 ------- 0 4.0 0.0 4 13
+ 0.52304 0 1 tcp 1540 ------- 0 0.0 4.0 9 14
- 0.52304 0 1 tcp 1540 ------- 0 0.0 4.0 9 14
+ 0.52304 0 1 tcp 1540 ------- 0 0.0 4.0 10 15
r 0.53008 1 3 tcp 1540 ------- 0 0.0 4.0 5 8
+ 0.53008 3 4 tcp 1540 ------- 0 0.0 4.0 5 8
- 0.53008 3 4 tcp 1540 ------- 0 0.0 4.0 5 8
- 0.53536 0 1 tcp 1540 ------- 0 0.0 4.0 10 15
r 0.54536 0 1 tcp 1540 ------- 0 0.0 4.0 9 14
+ 0.54536 1 3 tcp 1540 ------- 0 0.0 4.0 9 14
r 0.5524 3 4 tcp 1540 ------- 0 0.0 4.0 5 8
+ 0.5524 4 3 ack 40 ------- 0 4.0 0.0 5 16
- 0.5524 4 3 ack 40 ------- 0 4.0 0.0 5 16
r 0.55768 0 1 tcp 1540 ------- 0 0.0 4.0 10 15
+ 0.55768 1 3 tcp 1540 ------- 0 0.0 4.0 10 15
r 0.56272 4 3 ack 40 ------- 0 4.0 0.0 5 16
+ 0.56272 3 1 ack 40 ------- 0 4.0 0.0 5 16
- 0.56272 3 1 ack 40 ------- 0 4.0 0.0 5 16
r 0.57432 3 1 ack 40 ------- 0 4.0 0.0 5 16
+ 0.57432 1 0 ack 40 ------- 0 4.0 0.0 5 16
- 0.57432 1 0 ack 40 ------- 0 4.0 0.0 5 16
- 0.58168 1 3 tcp 1540 ------- 0 0.0 4.0 7 11
r 0.58464 1 0 ack 40 ------- 0 4.0 0.0 5 16
+ 0.58464 0 1 tcp 1540 ------- 0 0.0 4.0 11 17
- 0.58464 0 1 tcp 1540 ------- 0 0.0 4.0 11 17
+ 0.58464 0 1 tcp 1540 ------- 0 0.0 4.0 12 18
r 0.59168 1 3 tcp 1540 ------- 0 0.0 4.0 6 9
+ 0.59168 3 4 tcp 1540 ------- 0 0.0 4.0 6 9
- 0.59168 3 4 tcp 1540 ------- 0 0.0 4.0 6 9
- 0.59696 0 1 tcp 1540 ------- 0 0.0 4.0 12 18
r 0.60696 0 1 tcp 1540 ------- 0 0.0 4.0 11 17
+ 0.60696 1 3 tcp 1540 ------- 0 0.0 4.0 11 17
r 0.614 3 4 tcp 1540 ------- 0 0.0 4.0 6 9
+ 0.614 4 3 ack 40 ------- 0 4.0 0.0 6 19
- 0.614 4 3 ack 40 ------- 0 4.0 0.0 6 19
r 0.61928 0 1 tcp 1540 ------- 0 0.0 4.0 12 18
+ 0.61928 1 3 tcp 1540 ------- 0 0.0 4.0 12 18
r 0.62432 4 3 ack 40 ------- 0 4.0 0.0 6 19
+ 0.62432 3 1 ack 40 ------- 0 4.0 0.0 6 19
- 0.62432 3 1 ack 40 ------- 0 4.0 0.0 6 19
r 0.63592 3 1 ack 40 ------- 0 4.0 0.0 6 19
+ 0.63592 1 0 ack 40 ------- 0 4.0 0.0 6 19
- 0.63592 1 0 ack 40 ------- 0 4.0 0.0 6 19
- 0.64328 1 3 tcp 1540 ------- 0 0.0 4.0 8 12
r 0.64624 1 0 ack 40 ------- 0 4.0 0.0 6 19
+ 0.64624 0 1 tcp 1540 ------- 0 0.0 4.0 13 20
- 0.64624 0 1 tcp 1540 ------- 0 0.0 4.0 13 20
+ 0.64624 0 1 tcp 1540 ------- 0 0.0 4.0 14 21
r 0.65328 1 3 tcp 1540 ------- 0 0.0 4.0 7 11
+ 0.65328 3 4 tcp 1540 ------- 0 0.0 4.0 7 11
- 0.65328 3 4 tcp 1540 ------- 0 0.0 4.0 7 11
- 0.65856 0 1 tcp 1540 ------- 0 0.0 4.0 14 21
r 0.66856 0 1 tcp 1540 ------- 0 0.0 4.0 13 20
+ 0.66856 1 3 tcp 1540 ------- 0 0.0 4.0 13 20
r 0.6756 3 4 tcp 1540 ------- 0 0.0 4.0 7 11
+ 0.6756 4 3 ack 40 ------- 0 4.0 0.0 7 22
- 0.6756 4 3 ack 40 ------- 0 4.0 0.0 7 22
r 0.68088 0 1 tcp 1540 ------- 0 0.0 4.0 14 21
+ 0.68088 1 3 tcp 1540 ------- 0 0.0 4.0 14 21
r 0.68592 4 3 ack 40 ------- 0 4.0 0.0 7 22
+ 0.68592 3 1 ack 40 ------- 0 4.0 0.0 7 22
- 0.68592 3 1 ack 40 ------- 0 4.0 0.0 7 22
r 0.69752 3 1 ack 40 ------- 0 4.0 0.0 7 22
+ 0.69752 1 0 ack 40 ------- 0 4.0 0.0 7 22
- 0.69752 1 0 ack 40 ------- 0 4.0 0.0 7 22
- 0.70488 1 3 tcp 1540 ------- 0 0.0 4.0 9 14
r 0.70784 1 0 ack 40 ------- 0 4.0 0.0 7 22
+ 0.70784 0 1 tcp 1540 ------- 0 0.0 4.0 15 23
- 0.70784 0 1 tcp 1540 ------- 0 0.0 4.0 15 23
+ 0.70784 0 1 tcp 1540 ------- 0 0.0 4.0 16 24
r 0.71488 1 3 tcp 1540 ------- 0 0.0 4.0 8 12
+ 0.71488 3 4 tcp 1540 ------- 0 0.0 4.0 8 12
- 0.71488 3 4 tcp 1540 ------- 0 0.0 4.0 8 12
- 0.72016 0 1 tcp 1540 ------- 0 0.0 4.0 16 24
r 0.73016 0 1 tcp 1540 ------- 0 0.0 4.0 15 23
+ 0.73016 1 3 tcp 1540 ------- 0 0.0 4.0 15 23
r 0.7372 3 4 tcp 1540 ------- 0 0.0 4.0 8 12
+ 0.7372 4 3 ack 40 ------- 0 4.0 0.0 8 25
- 0.7372 4 3 ack 40 ------- 0 4.0 0.0 8 25
r 0.74248 0 1 tcp 1540 ------- 0 0.0 4.0 16 24
+ 0.74248 1 3 tcp 1540 ------- 0 0.0 4.0 16 24
r 0.74752 4 3 ack 40 ------- 0 4.0 0.0 8 25
+ 0.74752 3 1 ack 40 ------- 0 4.0 0.0 8 25
- 0.74752 3 1 ack 40 ------- 0 4.0 0.0 8 25
r 0.75912 3 1 ack 40 ------- 0 4.0 0.0 8 25
+ 0.75912 1 0 ack 40 ------- 0 4.0 0.0 8 25
- 0.75912 1 0 ack 40 ------- 0 4.0 0.0 8 25
- 0.76648 1 3 tcp 1540 ------- 0 0.0 4.0 10 15
r 0.76944 1 0 ack 40 ------- 0 4.0 0.0 8 25
+ 0.76944 0 1 tcp 1540 ------- 0 0.0 4.0 17 26
- 0.76944 0 1 tcp 1540 ------- 0 0.0 4.0 17 26
+ 0.76944 0 1 tcp 1540 ------- 0 0.0 4.0 18 27
r 0.77648 1 3 tcp 1540 ------- 0 0.0 4.0 9 14
+ 0.77648 3 4 tcp 1540 ------- 0 0.0 4.0 9 14
- 0.77648 3 4 tcp 1540 ------- 0 0.0 4.0 9 14
- 0.78176 0 1 tcp 1540 ------- 0 0.0 4.0 18 27
r 0.79176 0 1 tcp 1540 ------- 0 0.0 4.0 17 26
+ 0.79176 1 3 tcp 1540 ------- 0 0.0 4.0 17 26
r 0.7988 3 4 tcp 1540 ------- 0 0.0 4.0 9 14
+ 0.7988 4 3 ack 40 ------- 0 4.0 0.0 9 28
- 0.7988 4 3 ack 40 ------- 0 4.0 0.0 9 28
r 0.80408 0 1 tcp 1540 ------- 0 0.0 4.0 18 27
+ 0.80408 1 3 tcp 1540 ------- 0 0.0 4.0 18 27
r 0.80912 4 3 ack 40 ------- 0 4.0 0.0 9 28
+ 0.80912 3 1 ack 40 ------- 0 4.0 0.0 9 28
- 0.80912 3 1 ack 40 ------- 0 4.0 0.0 9 28
r 0.82072 3 1 ack 40 ------- 0 4.0 0.0 9 28
+ 0.82072 1 0 ack 40 ------- 0 4.0 0.0 9 28
- 0.82072 1 0 ack 40 ------- 0 4.0 0.0 9 28
- 0.82808 1 3 tcp 1540 ------- 0 0.0 4.0 11 17
r 0.83104 1 0 ack 40 ------- 0 4.0 0.0 9 28
+ 0.83104 0 1 tcp 1540 ------- 0 0.0 4.0 19 29
- 0.83104 0 1 tcp 1540 ------- 0 0.0 4.0 19 29
+ 0.83104 0 1 tcp 1540 ------- 0 0.0 4.0 20 30
r 0.83808 1 3 tcp 1540 ------- 0 0.0 4.0 10 15
+ 0.83808 3 4 tcp 1540 ------- 0 0.0 4.0 10 15
- 0.83808 3 4 tcp 1540 ------- 0 0.0 4.0 10 15
- 0.84336 0 1 tcp 1540 ------- 0 0.0 4.0 20 30
r 0.85336 0 1 tcp 1540 ------- 0 0.0 4.0 19 29
+ 0.85336 1 3 tcp 1540 ------- 0 0.0 4.0 19 29
r 0.8604 3 4 tcp 1540 ------- 0 0.0 4.0 10 15
+ 0.8604 4 3 ack 40 ------- 0 4.0 0.0 10 31
- 0.8604 4 3 ack 40 ------- 0 4.0 0.0 10 31
r 0.86568 0 1 tcp 1540 ------- 0 0.0 4.0 20 30
+ 0.86568 1 3 tcp 1540 ------- 0 0.0 4.0 20 30
r 0.87072 4 3 ack 40 ------- 0 4.0 0.0 10 31
+ 0.87072 3 1 ack 40 ------- 0 4.0 0.0 10 31
- 0.87072 3 1 ack 40 ------- 0 4.0 0.0 10 31
r 0.88232 3 1 ack 40 ------- 0 4.0 0.0 10 31
+ 0.88232 1 0 ack 40 ------- 0 4.0 0.0 10 31
- 0.88232 1 0 ack 40 ------- 0 4.0 0.0 10 31
- 0.88968 1 3 tcp 1540 ------- 0 0.0 4.0 12 18
r 0.89264 1 0 ack 40 ------- 0 4.0 0.0 10 31
+ 0.89264 0 1 tcp 1540 ------- 0 0.0 4.0 21 32
- 0.89264 0 1 tcp 1540 ------- 0 0.0 4.0 21 32
+ 0.89264 0 1 tcp 1540 ------- 0 0.0 4.0 22 33
r 0.89968 1 3 tcp 1540 ------- 0 0.0 4.0 11 17
+ 0.89968 3 4 tcp 1540 ------- 0 0.0 4.0 11 17
- 0.89968 3 4 tcp 1540 ------- 0 0.0 4.0 11 17
- 0.90496 0 1 tcp 1540 ------- 0 0.0 4.0 22 33
r 0.91496 0 1 tcp 1540 ------- 0 0.0 4.0 21 32
+ 0.91496 1 3 tcp 1540 ------- 0 0.0 4.0 21 32
r 0.922 3 4 tcp 1540 ------- 0 0.0 4.0 11 17
+ 0.922 4 3 ack 40 ------- 0 4.0 0.0 11 34
- 0.922 4 3 ack 40 ------- 0 4.0 0.0 11 34
r 0.92728 0 1 tcp 1540 ------- 0 0.0 4.0 22 33
+ 0.92728 1 3 tcp 1540 ------- 0 0.0 4.0 22 33
d 0.92728 1 3 tcp 1540 ------- 0 0.0 4.0 22 33
r 0.93232 4 3 ack 40 ------- 0 4.0 0.0 11 34
+ 0.93232 3 1 ack 40 ------- 0 4.0 0.0 11 34
- 0.93232 3 1 ack 40 ------- 0 4.0 0.0 11 34
r 0.94392 3 1 ack 40 ------- 0 4.0 0.0 11 34
+ 0.94392 1 0 ack 40 ------- 0 4.0 0.0 11 34
- 0.94392 1 0 ack 40 ------- 0 4.0 0.0 11 34
+ 0.950837 2 1 udp 1500 ------- 0 2.0 5.0 0 35
- 0.950837 2 1 udp 1500 ------- 0 2.0 5.0 0 35
- 0.95128 1 3 tcp 1540 ------- 0 0.0 4.0 13 20
r 0.95424 1 0 ack 40 ------- 0 4.0 0.0 11 34
+ 0.95424 0 1 tcp 1540 ------- 0 0.0 4.0 23 36
- 0.95424 0 1 tcp 1540 ------- 0 0.0 4.0 23 36
+ 0.95424 0 1 tcp 1540 ------- 0 0.0 4.0 24 37
r 0.96128 1 3 tcp 1540 ------- 0 0.0 4.0 12 18
+ 0.96128 3 4 tcp 1540 ------- 0 0.0 4.0 12 18
- 0.96128 3 4 tcp 1540 ------- 0 0.0 4.0 12 18
- 0.96656 0 1 tcp 1540 ------- 0 0.0 4.0 24 37
r 0.972837 2 1 udp 1500 ------- 0 2.0 5.0 0 35
+ 0.972837 1 3 udp 1500 ------- 0 2.0 5.0 0 35
r 0.97656 0 1 tcp 1540 ------- 0 0.0 4.0 23 36
+ 0.97656 1 3 tcp 1540 ------- 0 0.0 4.0 23 36
d 0.97656 1 3 tcp 1540 ------- 0 0.0 4.0 23 36
r 0.9836 3 4 tcp 1540 ------- 0 0.0 4.0 12 18
+ 0.9836 4 3 ack 40 ------- 0 4.0 0.0 12 38
- 0.9836 4 3 ack 40 ------- 0 4.0 0.0 12 38
r 0.98888 0 1 tcp 1540 ------- 0 0.0 4.0 24 37
+ 0.98888 1 3 tcp 1540 ------- 0 0.0 4.0 24 37
d 0.98888 1 3 tcp 1540 ------- 0 0.0 4.0 24 37
r 0.99392 4 3 ack 40 ------- 0 4.0 0.0 12 38
+ 0.99392 3 1 ack 40 ------- 0 4.0 0.0 12 38
- 0.99392 3 1 ack 40 ------- 0 4.0 0.0 12 38
r 1.00552 3 1 ack 40 ------- 0 4.0 0.0 12 38
+ 1.00552 1 0 ack 40 ------- 0 4.0 0.0 12 38
- 1.00552 1 0 ack 40 ------- 0 4.0 0.0 12 38
- 1.01288 1 3 tcp 1540 ------- 0 0.0 4.0 14 21
r 1.01584 1 0 ack 40 ------- 0 4.0 0.0 12 38
+ 1.01584 0 1 tcp 1540 ------- 0 0.0 4.0 25 39
- 1.01584 0 1 tcp 1540 ------- 0 0.0 4.0 25 39
+ 1.01584 0 1 tcp 1540 ------- 0 0.0 4.0 26 40
r 1.02288 1 3 tcp 1540 ------- 0 0.0 4.0 13 20
+ 1.02288 3 4 tcp 1540 ------- 0 0.0 4.0 13 20
- 1.02288 3 4 tcp 1540 ------- 0 0.0 4.0 13 20
- 1.02816 0 1 tcp 1540 ------- 0 0.0 4.0 26 40
r 1.03816 0 1 tcp 1540 ------- 0 0.0 4.0 25 39
+ 1.03816 1 3 tcp 1540 ------- 0 0.0 4.0 25 39
r 1.0452 3 4 tcp 1540 ------- 0 0.0 4.0 13 20
+ 1.0452 4 3 ack 40 ------- 0 4.0 0.0 13 41
- 1.0452 4 3 ack 40 ------- 0 4.0 0.0 13 41
r 1.05048 0 1 tcp 1540 ------- 0 0.0 4.0 26 40
+ 1.05048 1 3 tcp 1540 ------- 0 0.0 4.0 26 40
d 1.05048 1 3 tcp 1540 ------- 0 0.0 4.0 26 40
r 1.05552 4 3 ack 40 ------- 0 4.0 0.0 13 41
+ 1.05552 3 1 ack 40 ------- 0 4.0 0.0 13 41
- 1.05552 3 1 ack 40 ------- 0 4.0 0.0 13 41
r 1.06712 3 1 ack 40 ------- 0 4.0 0.0 13 41
+ 1.06712 1 0 ack 40 ------- 0 4.0 0.0 13 41
- 1.06712 1 0 ack 40 ------- 0 4.0 0.0 13 41
- 1.07448 1 3 tcp 1540 ------- 0 0.0 4.0 15 23
r 1.07744 1 0 ack 40 ------- 0 4.0 0.0 13 41
+ 1.07744 0 1 tcp 1540 ------- 0 0.0 4.0 27 42
- 1.07744 0 1 tcp 1540 ------- 0 0.0 4.0 27 42
+ 1.07744 0 1 tcp 1540 ------- 0 0.0 4.0 28 43
r 1.08448 1 3 tcp 1540 ------- 0 0.0 4.0 14 21
+ 1.08448 3 4 tcp 1540 ------- 0 0.0 4.0 14 21
- 1.08448 3 4 tcp 1540 ------- 0 0.0 4.0 14 21
- 1.08976 0 1 tcp 1540 ------- 0 0.0 4.0 28 43
r 1.09976 0 1 tcp 1540 ------- 0 0.0 4.0 27 42
+ 1.09976 1 3 tcp 1540 ------- 0 0.0 4.0 27 42
r 1.1068 3 4 tcp 1540 ------- 0 0.0 4.0 14 21
+ 1.1068 4 3 ack 40 ------- 0 4.0 0.0 14 44
- 1.1068 4 3 ack 40 ------- 0 4.0 0.0 14 44
r 1.11208 0 1 tcp 1540 ------- 0 0.0 4.0 28 43
+ 1.11208 1 3 tcp 1540 ------- 0 0.0 4.0 28 43
d 1.11208 1 3 tcp 1540 ------- 0 0.0 4.0 28 43
r 1.11712 4 3 ack 40 ------- 0 4.0 0.0 14 44
+ 1.11712 3 1 ack 40 ------- 0 4.0 0.0 14 44
- 1.11712 3 1 ack 40 ------- 0 4.0 0.0 14 44
r 1.12872 3 1 ack 40 ------- 0 4.0 0.0 14 44
+ 1.12872 1 0 ack 40 ------- 0 4.0 0.0 14 44
- 1.12872 1 0 ack 40 ------- 0 4.0 0.0 14 44
- 1.13608 1 3 tcp 1540 ------- 0 0.0 4.0 16 24
r 1.13904 1 0 ack 40 ------- 0 4.0 0.0 14 44
+ 1.13904 0 1 tcp 1540 ------- 0 0.0 4.0 29 45
- 1.13904 0 1 tcp 1540 ------- 0 0.0 4.0 29 45
+ 1.13904 0 1 tcp 1540 ------- 0 0.0 4.0 30 46
r 1.14608 1 3 tcp 1540 ------- 0 0.0 4.0 15 23
+ 1.14608 3 4 tcp 1540 ------- 0 0.0 4.0 15 23
- 1.14608 3 4 tcp 1540 ------- 0 0.0 4.0 15 23
- 1.15136 0 1 tcp 1540 ------- 0 0.0 4.0 30 46
r 1.16136 0 1 tcp 1540 ------- 0 0.0 4.0 29 45
+ 1.16136 1 3 tcp 1540 ------- 0 0.0 4.0 29 45
r 1.1684 3 4 tcp 1540 ------- 0 0.0 4.0 15 23
+ 1.1684 4 3 ack 40 ------- 0 4.0 0.0 15 47
- 1.1684 4 3 ack 40 ------- 0 4.0 0.0 15 47
r 1.17368 0 1 tcp 1540 ------- 0 0.0 4.0 30 46
+ 1.17368 1 3 tcp 1540 ------- 0 0.0 4.0 30 46
d 1.17368 1 3 tcp 1540 ------- 0 0.0 4.0 30 46
r 1.17872 4 3 ack 40 ------- 0 4.0 0.0 15 47
+ 1.17872 3 1 ack 40 ------- 0 4.0 0.0 15 47
- 1.17872 3 1 ack 40 ------- 0 4.0 0.0 15 47
r 1.19032 3 1 ack 40 ------- 0 4.0 0.0 15 47
+ 1.19032 1 0 ack 40 ------- 0 4.0 0.0 15 47
- 1.19032 1 0 ack 40 ------- 0 4.0 0.0 15 47
- 1.19768 1 3 tcp 1540 ------- 0 0.0 4.0 17 26
r 1.20064 1 0 ack 40 ------- 0 4.0 0.0 15 47
+ 1.20064 0 1 tcp 1540 ------- 0 0.0 4.0 31 48
- 1.20064 0 1 tcp 1540 ------- 0 0.0 4.0 31 48
+ 1.20064 0 1 tcp 1540 ------- 0 0.0 4.0 32 49
r 1.20768 1 3 tcp 1540 ------- 0 0.0 4.0 16 24
+ 1.20768 3 4 tcp 1540 ------- 0 0.0 4.0 16 24
- 1.20768 3 4 tcp 1540 ------- 0 0.0 4.0 16 24
- 1.21296 0 1 tcp 1540 ------- 0 0.0 4.0 32 49
r 1.22296 0 1 tcp 1540 ------- 0 0.0 4.0 31 48
+ 1.22296 1 3 tcp 1540 ------- 0 0.0 4.0 31 48
r 1.23 3 4 tcp 1540 ------- 0 0.0 4.0 16 24
+ 1.23 4 3 ack 40 ------- 0 4.0 0.0 16 50
- 1.23 4 3 ack 40 ------- 0 4.0 0.0 16 50
r 1.23528 0 1 tcp 1540 ------- 0 0.0 4.0 32 49
+ 1.23528 1 3 tcp 1540 ------- 0 0.0 4.0 32 49
d 1.23528 1 3 tcp 1540 ------- 0 0.0 4.0 32 49
r 1.24032 4 3 ack 40 ------- 0 4.0 0.0 16 50
+ 1.24032 3 1 ack 40 ------- 0 4.0 0.0 16 50
- 1.24032 3 1 ack 40 ------- 0 4.0 0.0 16 50
r 1.25192 3 1 ack 40 ------- 0 4.0 0.0 16 50
+ 1.25192 1 0 ack 40 ------- 0 4.0 0.0 16 50
- 1.25192 1 0 ack 40 ------- 0 4.0 0.0 16 50
- 1.25928 1 3 tcp 1540 ------- 0 0.0 4.0 18 27
r 1.26224 1 0 ack 40 ------- 0 4.0 0.0 16 50
+ 1.26224 0 1 tcp 1540 ------- 0 0.0 4.0 33 51
- 1.26224 0 1 tcp 1540 ------- 0 0.0 4.0 33 51
+ 1.26224 0 1 tcp 1540 ------- 0 0.0 4.0 34 52
r 1.26928 1 3 tcp 1540 ------- 0 0.0 4.0 17 26
+ 1.26928 3 4 tcp 1540 ------- 0 0.0 4.0 17 26
- 1.26928 3 4 tcp 1540 ------- 0 0.0 4.0 17 26
- 1.27456 0 1 tcp 1540 ------- 0 0.0 4.0 34 52
r 1.28456 0 1 tcp 1540 ------- 0 0.0 4.0 33 51
+ 1.28456 1 3 tcp 1540 ------- 0 0.0 4.0 33 51
r 1.2916 3 4 tcp 1540 ------- 0 0.0 4.0 17 26
+ 1.2916 4 3 ack 40 ------- 0 4.0 0.0 17 53
- 1.2916 4 3 ack 40 ------- 0 4.0 0.0 17 53
r 1.29688 0 1 tcp 1540 ------- 0 0.0 4.0 34 52
+ 1.29688 1 3 tcp 1540 ------- 0 0.0 4.0 34 52
d 1.29688 1 3 tcp 1540 ------- 0 0.0 4.0 34 52
r 1.30192 4 3 ack 40 ------- 0 4.0 0.0 17 53
+ 1.30192 3 1 ack 40 ------- 0 4.0 0.0 17 53
- 1.30192 3 1 ack 40 ------- 0 4.0 0.0 17 53
r 1.31352 3 1 ack 40 ------- 0 4.0 0.0 17 53
+ 1.31352 1 0 ack 40 ------- 0 4.0 0.0 17 53
- 1.31352 1 0 ack 40 ------- 0 4.0 0.0 17 53
- 1.32088 1 3 tcp 1540 ------- 0 0.0 4.0 19 29
r 1.32384 1 0 ack 40 ------- 0 4.0 0.0 17 53
+ 1.32384 0 1 tcp 1540 ------- 0 0.0 4.0 35 54
- 1.32384 0 1 tcp 1540 ------- 0 0.0 4.0 35 54
+ 1.32384 0 1 tcp 1540 ------- 0 0.0 4.0 36 55
r 1.33088 1 3 tcp 1540 ------- 0 0.0 4.0 18 27
+ 1.33088 3 4 tcp 1540 ------- 0 0.0 4.0 18 27
- 1.33088 3 4 tcp 1540 ------- 0 0.0 4.0 18 27
- 1.33616 0 1 tcp 1540 ------- 0 0.0 4.0 36 55
r 1.34616 0 1 tcp 1540 ------- 0 0.0 4.0 35 54
+ 1.34616 1 3 tcp 1540 ------- 0 0.0 4.0 35 54
r 1.3532 3 4 tcp 1540 ------- 0 0.0 4.0 18 27
+ 1.3532 4 3 ack 40 ------- 0 4.0 0.0 18 56
- 1.3532 4 3 ack 40 ------- 0 4.0 0.0 18 56
r 1.35848 0 1 tcp 1540 ------- 0 0.0 4.0 36 55
+ 1.35848 1 3 tcp 1540 ------- 0 0.0 4.0 36 55
d 1.35848 1 3 tcp 1540 ------- 0 0.0 4.0 36 55
r 1.36352 4 3 ack 40 ------- 0 4.0 0.0 18 56
+ 1.36352 3 1 ack 40 ------- 0 4.0 0.0 18 56
- 1.36352 3 1 ack 40 ------- 0 4.0 0.0 18 56
r 1.37512 3 1 ack 40 ------- 0 4.0 0.0 18 56
+ 1.37512 1 0 ack 40 ------- 0 4.0 0.0 18 56
- 1.37512 1 0 ack 40 ------- 0 4.0 0.0 18 56
- 1.38248 1 3 tcp 1540 ------- 0 0.0 4.0 20 30
r 1.38544 1 0 ack 40 ------- 0 4.0 0.0 18 56
+ 1.38544 0 1 tcp 1540 ------- 0 0.0 4.0 37 57
- 1.38544 0 1 tcp 1540 ------- 0 0.0 4.0 37 57
+ 1.38544 0 1 tcp 1540 ------- 0 0.0 4.0 38 58
r 1.39248 1 3 tcp 1540 ------- 0 0.0 4.0 19 29
+ 1.39248 3 4 tcp 1540 ------- 0 0.0 4.0 19 29
- 1.39248 3 4 tcp 1540 ------- 0 0.0 4.0 19 29
- 1.39776 0 1 tcp 1540 ------- 0 0.0 4.0 38 58
r 1.40776 0 1 tcp 1540 ------- 0 0.0 4.0 37 57
+ 1.40776 1 3 tcp 1540 ------- 0 0.0 4.0 37 57
r 1.4148 3 4 tcp 1540 ------- 0 0.0 4.0 19 29
+ 1.4148 4 3 ack 40 ------- 0 4.0 0.0 19 59
- 1.4148 4 3 ack 40 ------- 0 4.0 0.0 19 59
r 1.42008 0 1 tcp 1540 ------- 0 0.0 4.0 38 58
+ 1.42008 1 3 tcp 1540 ------- 0 0.0 4.0 38 58
d 1.42008 1 3 tcp 1540 ------- 0 0.0 4.0 38 58
r 1.42512 4 3 ack 40 ------- 0 4.0 0.0 19 59
+ 1.42512 3 1 ack 40 ------- 0 4.0 0.0 19 59
- 1.42512 3 1 ack 40 ------- 0 4.0 0.0 19 59
+ 1.436642 2 1 udp 1500 ------- 0 2.0 5.0 1 60
- 1.436642 2 1 udp 1500 ------- 0 2.0 5.0 1 60
r 1.43672 3 1 ack 40 ------- 0 4.0 0.0 19 59
+ 1.43672 1 0 ack 40 ------- 0 4.0 0.0 19 59
- 1.43672 1 0 ack 40 ------- 0 4.0 0.0 19 59
- 1.44408 1 3 tcp 1540 ------- 0 0.0 4.0 21 32
r 1.44704 1 0 ack 40 ------- 0 4.0 0.0 19 59
+ 1.44704 0 1 tcp 1540 ------- 0 0.0 4.0 39 61
- 1.44704 0 1 tcp 1540 ------- 0 0.0 4.0 39 61
r 1.45408 1 3 tcp 1540 ------- 0 0.0 4.0 20 30
+ 1.45408 3 4 tcp 1540 ------- 0 0.0 4.0 20 30
- 1.45408 3 4 tcp 1540 ------- 0 0.0 4.0 20 30
r 1.458642 2 1 udp 1500 ------- 0 2.0 5.0 1 60
+ 1.458642 1 3 udp 1500 ------- 0 2.0 5.0 1 60
r 1.46936 0 1 tcp 1540 ------- 0 0.0 4.0 39 61
+ 1.46936 1 3 tcp 1540 ------- 0 0.0 4.0 39 61
d 1.46936 1 3 tcp 1540 ------- 0 0.0 4.0 39 61
r 1.4764 3 4 tcp 1540 ------- 0 0.0 4.0 20 30
+ 1.4764 4 3 ack 40 ------- 0 4.0 0.0 20 62
- 1.4764 4 3 ack 40 ------- 0 4.0 0.0 20 62
r 1.48672 4 3 ack 40 ------- 0 4.0 0.0 20 62
+ 1.48672 3 1 ack 40 ------- 0 4.0 0.0 20 62
- 1.48672 3 1 ack 40 ------- 0 4.0 0.0 20 62
r 1.49832 3 1 ack 40 ------- 0 4.0 0.0 20 62
+ 1.49832 1 0 ack 40 ------- 0 4.0 0.0 20 62
- 1.49832 1 0 ack 40 ------- 0 4.0 0.0 20 62
- 1.50568 1 3 udp 1500 ------- 0 2.0 5.0 0 35
r 1.50864 1 0 ack 40 ------- 0 4.0 0.0 20 62
+ 1.50864 0 1 tcp 1540 ------- 0 0.0 4.0 40 63
- 1.50864 0 1 tcp 1540 ------- 0 0.0 4.0 40 63
r 1.51568 1 3 tcp 1540 ------- 0 0.0 4.0 21 32
+ 1.51568 3 4 tcp 1540 ------- 0 0.0 4.0 21 32
- 1.51568 3 4 tcp 1540 ------- 0 0.0 4.0 21 32
r 1.53096 0 1 tcp 1540 ------- 0 0.0 4.0 40 63
+ 1.53096 1 3 tcp 1540 ------- 0 0.0 4.0 40 63
r 1.538 3 4 tcp 1540 ------- 0 0.0 4.0 21 32
+ 1.538 4 3 ack 40 ------- 0 4.0 0.0 21 64
- 1.538 4 3 ack 40 ------- 0 4.0 0.0 21 64
r 1.54832 4 3 ack 40 ------- 0 4.0 0.0 21 64
+ 1.54832 3 1 ack 40 ------- 0 4.0 0.0 21 64
- 1.54832 3 1 ack 40 ------- 0 4.0 0.0 21 64
r 1.55992 3 1 ack 40 ------- 0 4.0 0.0 21 64
+ 1.55992 1 0 ack 40 ------- 0 4.0 0.0 21 64
- 1.55992 1 0 ack 40 ------- 0 4.0 0.0 21 64
- 1.56568 1 3 tcp 1540 ------- 0 0.0 4.0 25 39
r 1.57024 1 0 ack 40 ------- 0 4.0 0.0 21 64
+ 1.57024 0 1 tcp 1540 ------- 0 0.0 4.0 41 65
- 1.57024 0 1 tcp 1540 ------- 0 0.0 4.0 41 65
r 1.57568 1 3 udp 1500 ------- 0 2.0 5.0 0 35
+ 1.57568 3 5 udp 1500 ------- 0 2.0 5.0 0 35
- 1.57568 3 5 udp 1500 ------- 0 2.0 5.0 0 35
r 1.59256 0 1 tcp 1540 ------- 0 0.0 4.0 41 65
+ 1.59256 1 3 tcp 1540 ------- 0 0.0 4.0 41 65
r 1.59768 3 5 udp 1500 ------- 0 2.0 5.0 0 35
+ 1.600306 2 1 udp 1500 ------- 0 2.0 5.0 2 66
- 1.600306 2 1 udp 1500 ------- 0 2.0 5.0 2 66
r 1.622306 2 1 udp 1500 ------- 0 2.0 5.0 2 66
+ 1.622306 1 3 udp 1500 ------- 0 2.0 5.0 2 66
d 1.622306 1 3 udp 1500 ------- 0 2.0 5.0 2 66
- 1.62728 1 3 tcp 1540 ------- 0 0.0 4.0 27 42
r 1.63728 1 3 tcp 1540 ------- 0 0.0 4.0 25 39
+ 1.63728 3 4 tcp 1540 ------- 0 0.0 4.0 25 39
- 1.63728 3 4 tcp 1540 ------- 0 0.0 4.0 25 39
+ 1.645146 2 1 udp 1500 ------- 0 2.0 5.0 3 67
- 1.645146 2 1 udp 1500 ------- 0 2.0 5.0 3 67
r 1.6596 3 4 tcp 1540 ------- 0 0.0 4.0 25 39
+ 1.6596 4 3 ack 40 ------- 0 4.0 0.0 21 68
- 1.6596 4 3 ack 40 ------- 0 4.0 0.0 21 68
r 1.667146 2 1 udp 1500 ------- 0 2.0 5.0 3 67
+ 1.667146 1 3 udp 1500 ------- 0 2.0 5.0 3 67
r 1.66992 4 3 ack 40 ------- 0 4.0 0.0 21 68
+ 1.66992 3 1 ack 40 ------- 0 4.0 0.0 21 68
- 1.66992 3 1 ack 40 ------- 0 4.0 0.0 21 68
r 1.68152 3 1 ack 40 ------- 0 4.0 0.0 21 68
+ 1.68152 1 0 ack 40 ------- 0 4.0 0.0 21 68
- 1.68152 1 0 ack 40 ------- 0 4.0 0.0 21 68
- 1.68888 1 3 tcp 1540 ------- 0 0.0 4.0 29 45
r 1.69184 1 0 ack 40 ------- 0 4.0 0.0 21 68
r 1.69888 1 3 tcp 1540 ------- 0 0.0 4.0 27 42
+ 1.69888 3 4 tcp 1540 ------- 0 0.0 4.0 27 42
- 1.69888 3 4 tcp 1540 ------- 0 0.0 4.0 27 42
r 1.7212 3 4 tcp 1540 ------- 0 0.0 4.0 27 42
+ 1.7212 4 3 ack 40 ------- 0 4.0 0.0 21 69
- 1.7212 4 3 ack 40 ------- 0 4.0 0.0 21 69
r 1.73152 4 3 ack 40 ------- 0 4.0 0.0 21 69
+ 1.73152 3 1 ack 40 ------- 0 4.0 0.0 21 69
- 1.73152 3 1 ack 40 ------- 0 4.0 0.0 21 69
r 1.74312 3 1 ack 40 ------- 0 4.0 0.0 21 69
+ 1.74312 1 0 ack 40 ------- 0 4.0 0.0 21 69
- 1.74312 1 0 ack 40 ------- 0 4.0 0.0 21 69
- 1.75048 1 3 tcp 1540 ------- 0 0.0 4.0 31 48
r 1.75344 1 0 ack 40 ------- 0 4.0 0.0 21 69
r 1.76048 1 3 tcp 1540 ------- 0 0.0 4.0 29 45
+ 1.76048 3 4 tcp 1540 ------- 0 0.0 4.0 29 45
- 1.76048 3 4 tcp 1540 ------- 0 0.0 4.0 29 45
r 1.7828 3 4 tcp 1540 ------- 0 0.0 4.0 29 45
+ 1.7828 4 3 ack 40 ------- 0 4.0 0.0 21 70
- 1.7828 4 3 ack 40 ------- 0 4.0 0.0 21 70
r 1.79312 4 3 ack 40 ------- 0 4.0 0.0 21 70
+ 1.79312 3 1 ack 40 ------- 0 4.0 0.0 21 70
- 1.79312 3 1 ack 40 ------- 0 4.0 0.0 21 70
r 1.80472 3 1 ack 40 ------- 0 4.0 0.0 21 70
+ 1.80472 1 0 ack 40 ------- 0 4.0 0.0 21 70
- 1.80472 1 0 ack 40 ------- 0 4.0 0.0 21 70
- 1.81208 1 3 tcp 1540 ------- 0 0.0 4.0 33 51
r 1.81504 1 0 ack 40 ------- 0 4.0 0.0 21 70
+ 1.81504 0 1 tcp 1540 ---A--- 0 0.0 4.0 22 71
- 1.81504 0 1 tcp 1540 ---A--- 0 0.0 4.0 22 71
r 1.82208 1 3 tcp 1540 ------- 0 0.0 4.0 31 48
+ 1.82208 3 4 tcp 1540 ------- 0 0.0 4.0 31 48
- 1.82208 3 4 tcp 1540 ------- 0 0.0 4.0 31 48
r 1.83736 0 1 tcp 1540 ---A--- 0 0.0 4.0 22 71
+ 1.83736 1 3 tcp 1540 ---A--- 0 0.0 4.0 22 71
r 1.8444 3 4 tcp 1540 ------- 0 0.0 4.0 31 48
+ 1.8444 4 3 ack 40 ------- 0 4.0 0.0 21 72
- 1.8444 4 3 ack 40 ------- 0 4.0 0.0 21 72
r 1.85472 4 3 ack 40 ------- 0 4.0 0.0 21 72
+ 1.85472 3 1 ack 40 ------- 0 4.0 0.0 21 72
- 1.85472 3 1 ack 40 ------- 0 4.0 0.0 21 72
r 1.86632 3 1 ack 40 ------- 0 4.0 0.0 21 72
+ 1.86632 1 0 ack 40 ------- 0 4.0 0.0 21 72
- 1.86632 1 0 ack 40 ------- 0 4.0 0.0 21 72
- 1.87368 1 3 tcp 1540 ------- 0 0.0 4.0 35 54
r 1.87664 1 0 ack 40 ------- 0 4.0 0.0 21 72
+ 1.87748 2 1 udp 1500 ------- 0 2.0 5.0 4 73
- 1.87748 2 1 udp 1500 ------- 0 2.0 5.0 4 73
r 1.88368 1 3 tcp 1540 ------- 0 0.0 4.0 33 51
+ 1.88368 3 4 tcp 1540 ------- 0 0.0 4.0 33 51
- 1.88368 3 4 tcp 1540 ------- 0 0.0 4.0 33 51
r 1.89948 2 1 udp 1500 ------- 0 2.0 5.0 4 73
+ 1.89948 1 3 udp 1500 ------- 0 2.0 5.0 4 73
r 1.906 3 4 tcp 1540 ------- 0 0.0 4.0 33 51
+ 1.906 4 3 ack 40 ------- 0 4.0 0.0 21 74
- 1.906 4 3 ack 40 ------- 0 4.0 0.0 21 74
r 1.91632 4 3 ack 40 ------- 0 4.0 0.0 21 74
+ 1.91632 3 1 ack 40 ------- 0 4.0 0.0 21 74
- 1.91632 3 1 ack 40 ------- 0 4.0 0.0 21 74
+ 1.918032 2 1 udp 1500 ------- 0 2.0 5.0 5 75
- 1.918032 2 1 udp 1500 ------- 0 2.0 5.0 5 75
r 1.92792 3 1 ack 40 ------- 0 4.0 0.0 21 74
+ 1.92792 1 0 ack 40 ------- 0 4.0 0.0 21 74
- 1.92792 1 0 ack 40 ------- 0 4.0 0.0 21 74
- 1.93528 1 3 tcp 1540 ------- 0 0.0 4.0 37 57
r 1.93824 1 0 ack 40 ------- 0 4.0 0.0 21 74
r 1.940032 2 1 udp 1500 ------- 0 2.0 5.0 5 75
+ 1.940032 1 3 udp 1500 ------- 0 2.0 5.0 5 75
r 1.94528 1 3 tcp 1540 ------- 0 0.0 4.0 35 54
+ 1.94528 3 4 tcp 1540 ------- 0 0.0 4.0 35 54
- 1.94528 3 4 tcp 1540 ------- 0 0.0 4.0 35 54
r 1.9676 3 4 tcp 1540 ------- 0 0.0 4.0 35 54
+ 1.9676 4 3 ack 40 ------- 0 4.0 0.0 21 76
- 1.9676 4 3 ack 40 ------- 0 4.0 0.0 21 76
r 1.97792 4 3 ack 40 ------- 0 4.0 0.0 21 76
+ 1.97792 3 1 ack 40 ------- 0 4.0 0.0 21 76
- 1.97792 3 1 ack 40 ------- 0 4.0 0.0 21 76
r 1.98952 3 1 ack 40 ------- 0 4.0 0.0 21 76
+ 1.98952 1 0 ack 40 ------- 0 4.0 0.0 21 76
- 1.98952 1 0 ack 40 ------- 0 4.0 0.0 21 76
- 1.99688 1 3 udp 1500 ------- 0 2.0 5.0 1 60
r 1.99984 1 0 ack 40 ------- 0 4.0 0.0 21 76
r 2.00688 1 3 tcp 1540 ------- 0 0.0 4.0 37 57
+ 2.00688 3 4 tcp 1540 ------- 0 0.0 4.0 37 57
- 2.00688 3 4 tcp 1540 ------- 0 0.0 4.0 37 57
r 2.0292 3 4 tcp 1540 ------- 0 0.0 4.0 37 57
+ 2.0292 4 3 ack 40 ------- 0 4.0 0.0 21 77
- 2.0292 4 3 ack 40 ------- 0 4.0 0.0 21 77
r 2.03952 4 3 ack 40 ------- 0 4.0 0.0 21 77
+ 2.03952 3 1 ack 40 ------- 0 4.0 0.0 21 77
- 2.03952 3 1 ack 40 ------- 0 4.0 0.0 21 77
r 2.05112 3 1 ack 40 ------- 0 4.0 0.0 21 77
+ 2.05112 1 0 ack 40 ------- 0 4.0 0.0 21 77
- 2.05112 1 0 ack 40 ------- 0 4.0 0.0 21 77
- 2.05688 1 3 tcp 1540 ------- 0 0.0 4.0 40 63
r 2.06144 1 0 ack 40 ------- 0 4.0 0.0 21 77
r 2.06688 1 3 udp 1500 ------- 0 2.0 5.0 1 60
+ 2.06688 3 5 udp 1500 ------- 0 2.0 5.0 1 60
- 2.06688 3 5 udp 1500 ------- 0 2.0 5.0 1 60
r 2.08888 3 5 udp 1500 ------- 0 2.0 5.0 1 60
- 2.11848 1 3 tcp 1540 ------- 0 0.0 4.0 41 65
r 2.12848 1 3 tcp 1540 ------- 0 0.0 4.0 40 63
+ 2.12848 3 4 tcp 1540 ------- 0 0.0 4.0 40 63
- 2.12848 3 4 tcp 1540 ------- 0 0.0 4.0 40 63
r 2.1508 3 4 tcp 1540 ------- 0 0.0 4.0 40 63
+ 2.1508 4 3 ack 40 ------- 0 4.0 0.0 21 78
- 2.1508 4 3 ack 40 ------- 0 4.0 0.0 21 78
r 2.16112 4 3 ack 40 ------- 0 4.0 0.0 21 78
+ 2.16112 3 1 ack 40 ------- 0 4.0 0.0 21 78
- 2.16112 3 1 ack 40 ------- 0 4.0 0.0 21 78
r 2.17272 3 1 ack 40 ------- 0 4.0 0.0 21 78
+ 2.17272 1 0 ack 40 ------- 0 4.0 0.0 21 78
- 2.17272 1 0 ack 40 ------- 0 4.0 0.0 21 78
- 2.18008 1 3 udp 1500 ------- 0 2.0 5.0 3 67
r 2.18304 1 0 ack 40 ------- 0 4.0 0.0 21 78
r 2.19008 1 3 tcp 1540 ------- 0 0.0 4.0 41 65
+ 2.19008 3 4 tcp 1540 ------- 0 0.0 4.0 41 65
- 2.19008 3 4 tcp 1540 ------- 0 0.0 4.0 41 65
+ 2.208005 2 1 udp 1500 ------- 0 2.0 5.0 6 79
- 2.208005 2 1 udp 1500 ------- 0 2.0 5.0 6 79
r 2.2124 3 4 tcp 1540 ------- 0 0.0 4.0 41 65
+ 2.2124 4 3 ack 40 ------- 0 4.0 0.0 21 80
- 2.2124 4 3 ack 40 ------- 0 4.0 0.0 21 80
r 2.22272 4 3 ack 40 ------- 0 4.0 0.0 21 80
+ 2.22272 3 1 ack 40 ------- 0 4.0 0.0 21 80
- 2.22272 3 1 ack 40 ------- 0 4.0 0.0 21 80
r 2.230005 2 1 udp 1500 ------- 0 2.0 5.0 6 79
+ 2.230005 1 3 udp 1500 ------- 0 2.0 5.0 6 79
r 2.23432 3 1 ack 40 ------- 0 4.0 0.0 21 80
+ 2.23432 1 0 ack 40 ------- 0 4.0 0.0 21 80
- 2.23432 1 0 ack 40 ------- 0 4.0 0.0 21 80
- 2.24008 1 3 tcp 1540 ---A--- 0 0.0 4.0 22 71
r 2.24464 1 0 ack 40 ------- 0 4.0 0.0 21 80
r 2.25008 1 3 udp 1500 ------- 0 2.0 5.0 3 67